 Entering Gaussian System, Link 0=g16
 Initial command:
 /home/sekinelabo/g16/l1.exe "/home/sekinelabo/g16temp/Gau-4051704.inp" -scrdir="/home/sekinelabo/g16temp/"
 Entering Link 1 = /home/sekinelabo/g16/l1.exe PID=   4051706.
  
 Copyright (c) 1988-2017, Gaussian, Inc.  All Rights Reserved.
  
 This is part of the Gaussian(R) 16 program.  It is based on
 the Gaussian(R) 09 system (copyright 2009, Gaussian, Inc.),
 the Gaussian(R) 03 system (copyright 2003, Gaussian, Inc.),
 the Gaussian(R) 98 system (copyright 1998, Gaussian, Inc.),
 the Gaussian(R) 94 system (copyright 1995, Gaussian, Inc.),
 the Gaussian 92(TM) system (copyright 1992, Gaussian, Inc.),
 the Gaussian 90(TM) system (copyright 1990, Gaussian, Inc.),
 the Gaussian 88(TM) system (copyright 1988, Gaussian, Inc.),
 the Gaussian 86(TM) system (copyright 1986, Carnegie Mellon
 University), and the Gaussian 82(TM) system (copyright 1983,
 Carnegie Mellon University). Gaussian is a federally registered
 trademark of Gaussian, Inc.
  
 This software contains proprietary and confidential information,
 including trade secrets, belonging to Gaussian, Inc.
  
 This software is provided under written license and may be
 used, copied, transmitted, or stored only in accord with that
 written license.
  
 The following legend is applicable only to US Government
 contracts under FAR:
  
                    RESTRICTED RIGHTS LEGEND
  
 Use, reproduction and disclosure by the US Government is
 subject to restrictions as set forth in subparagraphs (a)
 and (c) of the Commercial Computer Software - Restricted
 Rights clause in FAR 52.227-19.
  
 Gaussian, Inc.
 340 Quinnipiac St., Bldg. 40, Wallingford CT 06492
  
  
 ---------------------------------------------------------------
 Warning -- This program may not be used in any manner that
 competes with the business of Gaussian, Inc. or will provide
 assistance to any competitor of Gaussian, Inc.  The licensee
 of this program is prohibited from giving any competitor of
 Gaussian, Inc. access to this program.  By using this program,
 the user acknowledges that Gaussian, Inc. is engaged in the
 business of creating and licensing software in the field of
 computational chemistry and represents and warrants to the
 licensee that it is not a competitor of Gaussian, Inc. and that
 it will not use this program in any manner prohibited above.
 ---------------------------------------------------------------
  

 Cite this work as:
 Gaussian 16, Revision B.01,
 M. J. Frisch, G. W. Trucks, H. B. Schlegel, G. E. Scuseria, 
 M. A. Robb, J. R. Cheeseman, G. Scalmani, V. Barone, 
 G. A. Petersson, H. Nakatsuji, X. Li, M. Caricato, A. V. Marenich, 
 J. Bloino, B. G. Janesko, R. Gomperts, B. Mennucci, H. P. Hratchian, 
 J. V. Ortiz, A. F. Izmaylov, J. L. Sonnenberg, D. Williams-Young, 
 F. Ding, F. Lipparini, F. Egidi, J. Goings, B. Peng, A. Petrone, 
 T. Henderson, D. Ranasinghe, V. G. Zakrzewski, J. Gao, N. Rega, 
 G. Zheng, W. Liang, M. Hada, M. Ehara, K. Toyota, R. Fukuda, 
 J. Hasegawa, M. Ishida, T. Nakajima, Y. Honda, O. Kitao, H. Nakai, 
 T. Vreven, K. Throssell, J. A. Montgomery, Jr., J. E. Peralta, 
 F. Ogliaro, M. J. Bearpark, J. J. Heyd, E. N. Brothers, K. N. Kudin, 
 V. N. Staroverov, T. A. Keith, R. Kobayashi, J. Normand, 
 K. Raghavachari, A. P. Rendell, J. C. Burant, S. S. Iyengar, 
 J. Tomasi, M. Cossi, J. M. Millam, M. Klene, C. Adamo, R. Cammi, 
 J. W. Ochterski, R. L. Martin, K. Morokuma, O. Farkas, 
 J. B. Foresman, and D. J. Fox, Gaussian, Inc., Wallingford CT, 2016.
 
 ******************************************
 Gaussian 16:  ES64L-G16RevB.01 20-Dec-2017
                13-Nov-2023 
 ******************************************
 %mem=14GB
 %chk=checkpoint.chk
 %nprocshared=16
 Will use up to   16 processors via shared memory.
 -------------------------
 #P B3LYP/6-311+g(d) force
 -------------------------
 1/10=7,30=1,38=1/1,3;
 2/12=2,17=6,18=5,40=1/2;
 3/5=4,6=6,7=11,11=2,25=1,30=1,71=1,74=-5/1,2,3;
 4//1;
 5/5=2,38=5/2;
 6/7=2,8=2,9=2,10=2,28=1/1;
 7/29=1/1,2,3,16;
 1/10=7,30=1/3;
 99//99;
 Leave Link    1 at Mon Nov 13 16:32:00 2023, MaxMem=  1879048192 cpu:               0.3 elap:               0.0
 (Enter /home/sekinelabo/g16/l101.exe)
 ------------------------------
 Gaussian input prepared by ASE
 ------------------------------
 Symbolic Z-matrix:
 Charge =  0 Multiplicity = 2
 Na                    2.88725   0.65121   0.76469 
 Na                    0.75629   2.6132    0. 
 Na                    0.        0.        1.26742 
 Na                    1.36215   2.12191   2.89151 
 Na                    3.34448   3.58137   1.17314 
 Na                    5.52703   1.62207   1.82138 
 Na                    8.36221   1.14835   0.96805 
 
 ITRead=  0  0  0  0  0  0  0
 MicOpt= -1 -1 -1 -1 -1 -1 -1
 NAtoms=      7 NQM=        7 NQMF=       0 NMMI=      0 NMMIF=      0
                NMic=       0 NMicF=      0.
                    Isotopes and Nuclear Properties:
 (Nuclear quadrupole moments (NQMom) in fm**2, nuclear magnetic moments (NMagM)
  in nuclear magnetons)

  Atom         1           2           3           4           5           6           7
 IAtWgt=          23          23          23          23          23          23          23
 AtmWgt=  22.9897697  22.9897697  22.9897697  22.9897697  22.9897697  22.9897697  22.9897697
 NucSpn=           3           3           3           3           3           3           3
 AtZEff=  -0.0000000  -0.0000000  -0.0000000  -0.0000000  -0.0000000  -0.0000000  -0.0000000
 NQMom=   10.4000000  10.4000000  10.4000000  10.4000000  10.4000000  10.4000000  10.4000000
 NMagM=    2.2175200   2.2175200   2.2175200   2.2175200   2.2175200   2.2175200   2.2175200
 AtZNuc=  11.0000000  11.0000000  11.0000000  11.0000000  11.0000000  11.0000000  11.0000000
 Leave Link  101 at Mon Nov 13 16:32:00 2023, MaxMem=  1879048192 cpu:               2.6 elap:               0.2
 (Enter /home/sekinelabo/g16/l103.exe)

 GradGradGradGradGradGradGradGradGradGradGradGradGradGradGradGradGradGrad
 Berny optimization.
 Initialization pass.
 Trust Radius=3.00D-01 FncErr=1.00D-07 GrdErr=1.00D-07 EigMax=2.50D+02 EigMin=1.00D-04
 Number of steps in this run=      2 maximum allowed number of steps=      2.
 GradGradGradGradGradGradGradGradGradGradGradGradGradGradGradGradGradGrad

 Leave Link  103 at Mon Nov 13 16:32:00 2023, MaxMem=  1879048192 cpu:               0.2 elap:               0.0
 (Enter /home/sekinelabo/g16/l202.exe)
                          Input orientation:                          
 ---------------------------------------------------------------------
 Center     Atomic      Atomic             Coordinates (Angstroms)
 Number     Number       Type             X           Y           Z
 ---------------------------------------------------------------------
      1         11           0        2.887254    0.651207    0.764691
      2         11           0        0.756288    2.613204    0.000000
      3         11           0        0.000000    0.000000    1.267417
      4         11           0        1.362145    2.121912    2.891507
      5         11           0        3.344476    3.581368    1.173137
      6         11           0        5.527030    1.622074    1.821378
      7         11           0        8.362207    1.148347    0.968054
 ---------------------------------------------------------------------
                    Distance matrix (angstroms):
                    1          2          3          4          5
     1  Na   0.000000
     2  Na   2.995864   0.000000
     3  Na   3.002173   3.001191   0.000000
     4  Na   3.002046   2.994870   2.999270   0.000000
     5  Na   2.993613   3.002051   4.901082   3.002074   0.000000
     6  Na   3.004594   5.201897   5.786714   4.329121   3.003763
     7  Na   5.501237   7.805955   8.445995   7.324505   5.580258
                    6          7
     6  Na   0.000000
     7  Na   2.998467   0.000000
 Stoichiometry    Na7(2)
 Framework group  C1[X(Na7)]
 Deg. of freedom    15
 Full point group                 C1      NOp   1
 Largest Abelian subgroup         C1      NOp   1
 Largest concise Abelian subgroup C1      NOp   1
                         Standard orientation:                         
 ---------------------------------------------------------------------
 Center     Atomic      Atomic             Coordinates (Angstroms)
 Number     Number       Type             X           Y           Z
 ---------------------------------------------------------------------
      1         11           0       -0.289803   -1.025666   -0.504764
      2         11           0       -2.420769    0.936331   -1.269455
      3         11           0       -3.177057   -1.676873   -0.002038
      4         11           0       -1.814912    0.445039    1.622053
      5         11           0        0.167419    1.904495   -0.096318
      6         11           0        2.349973   -0.054799    0.551923
      7         11           0        5.185150   -0.528526   -0.301401
 ---------------------------------------------------------------------
 Rotational constants (GHZ):           1.5987230           0.3879086           0.3626564
 Leave Link  202 at Mon Nov 13 16:32:00 2023, MaxMem=  1879048192 cpu:               0.1 elap:               0.0
 (Enter /home/sekinelabo/g16/l301.exe)
 Standard basis: 6-311+G(d) (5D, 7F)
 Ernie: Thresh=  0.10000D-02 Tol=  0.10000D-05 Strict=F.
 There are   217 symmetry adapted cartesian basis functions of A   symmetry.
 There are   210 symmetry adapted basis functions of A   symmetry.
   210 basis functions,   350 primitive gaussians,   217 cartesian basis functions
    39 alpha electrons       38 beta electrons
       nuclear repulsion energy       354.9912104720 Hartrees.
 IExCor=  402 DFT=T Ex+Corr=B3LYP ExCW=0 ScaHFX=  0.200000
 ScaDFX=  0.800000  0.720000  1.000000  0.810000 ScalE2=  1.000000  1.000000
 IRadAn=      5 IRanWt=     -1 IRanGd=            0 ICorTp=0 IEmpDi=  4
 NAtoms=    7 NActive=    7 NUniq=    7 SFac= 1.00D+00 NAtFMM=   60 NAOKFM=F Big=F
 Integral buffers will be    131072 words long.
 Raffenetti 2 integral format.
 Two-electron integral symmetry is turned on.
 Leave Link  301 at Mon Nov 13 16:32:00 2023, MaxMem=  1879048192 cpu:               0.5 elap:               0.0
 (Enter /home/sekinelabo/g16/l302.exe)
 NPDir=0 NMtPBC=     1 NCelOv=     1 NCel=       1 NClECP=     1 NCelD=      1
         NCelK=      1 NCelE2=     1 NClLst=     1 CellRange=     0.0.
 One-electron integrals computed using PRISM.
 One-electron integral symmetry used in STVInt
 NBasis=   210 RedAO= T EigKep=  1.82D-06  NBF=   210
 NBsUse=   210 1.00D-06 EigRej= -1.00D+00 NBFU=   210
 Precomputing XC quadrature grid using
 IXCGrd= 4 IRadAn=           5 IRanWt=          -1 IRanGd=           0 AccXCQ= 0.00D+00.
 Generated NRdTot=       0 NPtTot=           0 NUsed=           0 NTot=          32
 NSgBfM=   206   206   206   206   206 MxSgAt=     7 MxSgA2=     7.
 Leave Link  302 at Mon Nov 13 16:32:00 2023, MaxMem=  1879048192 cpu:               2.2 elap:               0.1
 (Enter /home/sekinelabo/g16/l303.exe)
 DipDrv:  MaxL=1.
 Leave Link  303 at Mon Nov 13 16:32:00 2023, MaxMem=  1879048192 cpu:               1.1 elap:               0.1
 (Enter /home/sekinelabo/g16/l401.exe)
 ExpMin= 7.60D-03 ExpMax= 3.62D+04 ExpMxC= 1.21D+03 IAcc=3 IRadAn=         5 AccDes= 0.00D+00
 Harris functional with IExCor=  402 and IRadAn=       5 diagonalized for initial guess.
 HarFok:  IExCor=  402 AccDes= 0.00D+00 IRadAn=         5 IDoV= 1 UseB2=F ITyADJ=14
 ICtDFT=  3500011 ScaDFX=  1.000000  1.000000  1.000000  1.000000
 FoFCou: FMM=F IPFlag=           0 FMFlag=      100000 FMFlg1=           0
         NFxFlg=           0 DoJE=T BraDBF=F KetDBF=T FulRan=T
         wScrn=  0.000000 ICntrl=       500 IOpCl=  0 I1Cent=   200000004 NGrid=           0
         NMat0=    1 NMatS0=      1 NMatT0=    0 NMatD0=    1 NMtDS0=    0 NMtDT0=    0
 Petite list used in FoFCou.
 Harris En= -1135.85665277327    
 JPrj=0 DoOrth=F DoCkMO=F.
 Initial guess <Sx>= 0.0000 <Sy>= 0.0000 <Sz>= 0.5000 <S**2>= 0.7500 S= 0.5000
 Leave Link  401 at Mon Nov 13 16:32:00 2023, MaxMem=  1879048192 cpu:               5.1 elap:               0.4
 (Enter /home/sekinelabo/g16/l502.exe)
 Keep R1 and R2 ints in memory in canonical form, NReq=507620374.
 FoFCou: FMM=F IPFlag=           0 FMFlag=           0 FMFlg1=           0
         NFxFlg=           0 DoJE=F BraDBF=F KetDBF=F FulRan=T
         wScrn=  0.000000 ICntrl=       600 IOpCl=  0 I1Cent=           0 NGrid=           0
         NMat0=    1 NMatS0=  22155 NMatT0=    0 NMatD0=    1 NMtDS0=    0 NMtDT0=    0
 Symmetry not used in FoFCou.
 Two-electron integral symmetry not used.
 UHF open shell SCF:
 Using DIIS extrapolation, IDIIS=  1040.
 NGot=  1879048192 LenX=  1388082362 LenY=  1388034832
 Requested convergence on RMS density matrix=1.00D-08 within 128 cycles.
 Requested convergence on MAX density matrix=1.00D-06.
 Requested convergence on             energy=1.00D-06.
 No special actions if energy rises.

 Cycle   1  Pass 1  IDiag  1:
 E= -1136.04672592667    
 DIIS: error= 1.22D-02 at cycle   1 NSaved=   1.
 NSaved= 1 IEnMin= 1 EnMin= -1136.04672592667     IErMin= 1 ErrMin= 1.22D-02
 ErrMax= 1.22D-02  0.00D+00 EMaxC= 1.00D-01 BMatC= 1.97D-01 BMatP= 1.97D-01
 IDIUse=3 WtCom= 8.78D-01 WtEn= 1.22D-01
 Coeff-Com:  0.100D+01
 Coeff-En:   0.100D+01
 Coeff:      0.100D+01
 Gap=     0.023 Goal=   None    Shift=    0.000
 Gap=     0.044 Goal=   None    Shift=    0.000
 GapD=    0.023 DampG=0.250 DampE=0.500 DampFc=0.2500 IDamp=-1.
 Damping current iteration by 2.50D-01
 RMSDP=7.05D-02 MaxDP=6.90D+00              OVMax= 3.26D-01

 Cycle   2  Pass 1  IDiag  1:
 E= -1136.05982492195     Delta-E=       -0.013098995280 Rises=F Damp=T
 DIIS: error= 8.63D-03 at cycle   2 NSaved=   2.
 NSaved= 2 IEnMin= 2 EnMin= -1136.05982492195     IErMin= 2 ErrMin= 8.63D-03
 ErrMax= 8.63D-03  0.00D+00 EMaxC= 1.00D-01 BMatC= 7.46D-02 BMatP= 1.97D-01
 IDIUse=3 WtCom= 9.14D-01 WtEn= 8.63D-02
 Coeff-Com: -0.122D+01 0.222D+01
 Coeff-En:   0.000D+00 0.100D+01
 Coeff:     -0.111D+01 0.211D+01
 Gap=     0.035 Goal=   None    Shift=    0.000
 Gap=     0.042 Goal=   None    Shift=    0.000
 RMSDP=3.66D-02 MaxDP=3.56D+00 DE=-1.31D-02 OVMax= 5.35D-01

 Cycle   3  Pass 1  IDiag  1:
 E= -1136.05297032916     Delta-E=        0.006854592793 Rises=F Damp=F
 DIIS: error= 7.60D-03 at cycle   3 NSaved=   3.
 NSaved= 3 IEnMin= 2 EnMin= -1136.05982492195     IErMin= 3 ErrMin= 7.60D-03
 ErrMax= 7.60D-03  0.00D+00 EMaxC= 1.00D-01 BMatC= 2.36D-02 BMatP= 7.46D-02
 IDIUse=3 WtCom= 9.24D-01 WtEn= 7.60D-02
 Coeff-Com: -0.693D+00 0.120D+01 0.494D+00
 Coeff-En:   0.000D+00 0.663D+00 0.337D+00
 Coeff:     -0.640D+00 0.116D+01 0.482D+00
 Gap=     0.025 Goal=   None    Shift=    0.000
 Gap=     0.045 Goal=   None    Shift=    0.000
 RMSDP=1.21D-02 MaxDP=9.03D-01 DE= 6.85D-03 OVMax= 3.41D-01

 Cycle   4  Pass 1  IDiag  1:
 E= -1136.06926110154     Delta-E=       -0.016290772385 Rises=F Damp=F
 DIIS: error= 4.20D-03 at cycle   4 NSaved=   4.
 NSaved= 4 IEnMin= 4 EnMin= -1136.06926110154     IErMin= 4 ErrMin= 4.20D-03
 ErrMax= 4.20D-03  0.00D+00 EMaxC= 1.00D-01 BMatC= 1.09D-02 BMatP= 2.36D-02
 IDIUse=3 WtCom= 9.58D-01 WtEn= 4.20D-02
 Coeff-Com: -0.430D-01 0.854D-01 0.389D+00 0.568D+00
 Coeff-En:   0.000D+00 0.000D+00 0.376D+00 0.624D+00
 Coeff:     -0.412D-01 0.818D-01 0.389D+00 0.571D+00
 Gap=     0.029 Goal=   None    Shift=    0.000
 Gap=     0.036 Goal=   None    Shift=    0.000
 RMSDP=5.51D-03 MaxDP=2.97D-01 DE=-1.63D-02 OVMax= 1.98D-01

 Cycle   5  Pass 1  IDiag  1:
 E= -1136.08423217143     Delta-E=       -0.014971069882 Rises=F Damp=F
 DIIS: error= 9.17D-04 at cycle   5 NSaved=   5.
 NSaved= 5 IEnMin= 5 EnMin= -1136.08423217143     IErMin= 5 ErrMin= 9.17D-04
 ErrMax= 9.17D-04  0.00D+00 EMaxC= 1.00D-01 BMatC= 6.68D-04 BMatP= 1.09D-02
 IDIUse=3 WtCom= 9.91D-01 WtEn= 9.17D-03
 Coeff-Com:  0.715D-02-0.967D-02 0.158D+00 0.264D+00 0.580D+00
 Coeff-En:   0.000D+00 0.000D+00 0.000D+00 0.000D+00 0.100D+01
 Coeff:      0.709D-02-0.958D-02 0.157D+00 0.262D+00 0.584D+00
 Gap=     0.028 Goal=   None    Shift=    0.000
 Gap=     0.035 Goal=   None    Shift=    0.000
 RMSDP=3.22D-03 MaxDP=3.00D-01 DE=-1.50D-02 OVMax= 3.52D-02

 Cycle   6  Pass 1  IDiag  1:
 E= -1136.08475204625     Delta-E=       -0.000519874820 Rises=F Damp=F
 DIIS: error= 4.19D-04 at cycle   6 NSaved=   6.
 NSaved= 6 IEnMin= 6 EnMin= -1136.08475204625     IErMin= 6 ErrMin= 4.19D-04
 ErrMax= 4.19D-04  0.00D+00 EMaxC= 1.00D-01 BMatC= 1.77D-04 BMatP= 6.68D-04
 IDIUse=3 WtCom= 9.96D-01 WtEn= 4.19D-03
 Coeff-Com: -0.497D-02 0.575D-02-0.138D-01-0.293D-01 0.327D+00 0.716D+00
 Coeff-En:   0.000D+00 0.000D+00 0.000D+00 0.000D+00 0.222D+00 0.778D+00
 Coeff:     -0.495D-02 0.573D-02-0.138D-01-0.292D-01 0.326D+00 0.716D+00
 Gap=     0.029 Goal=   None    Shift=    0.000
 Gap=     0.035 Goal=   None    Shift=    0.000
 RMSDP=1.50D-03 MaxDP=9.86D-02 DE=-5.20D-04 OVMax= 1.85D-02

 Cycle   7  Pass 1  IDiag  1:
 E= -1136.08496097249     Delta-E=       -0.000208926249 Rises=F Damp=F
 DIIS: error= 8.86D-05 at cycle   7 NSaved=   7.
 NSaved= 7 IEnMin= 7 EnMin= -1136.08496097249     IErMin= 7 ErrMin= 8.86D-05
 ErrMax= 8.86D-05  0.00D+00 EMaxC= 1.00D-01 BMatC= 3.30D-06 BMatP= 1.77D-04
 IDIUse=1 WtCom= 1.00D+00 WtEn= 0.00D+00
 Coeff-Com: -0.273D-02 0.341D-02-0.573D-02-0.140D-01 0.329D-01 0.119D+00
 Coeff-Com:  0.867D+00
 Coeff:     -0.273D-02 0.341D-02-0.573D-02-0.140D-01 0.329D-01 0.119D+00
 Coeff:      0.867D+00
 Gap=     0.029 Goal=   None    Shift=    0.000
 Gap=     0.035 Goal=   None    Shift=    0.000
 RMSDP=4.84D-04 MaxDP=3.49D-02 DE=-2.09D-04 OVMax= 1.14D-02

 Cycle   8  Pass 1  IDiag  1:
 E= -1136.08498658800     Delta-E=       -0.000025615503 Rises=F Damp=F
 DIIS: error= 8.91D-05 at cycle   8 NSaved=   8.
 NSaved= 8 IEnMin= 8 EnMin= -1136.08498658800     IErMin= 7 ErrMin= 8.86D-05
 ErrMax= 8.91D-05  0.00D+00 EMaxC= 1.00D-01 BMatC= 2.38D-06 BMatP= 3.30D-06
 IDIUse=1 WtCom= 1.00D+00 WtEn= 0.00D+00
 Coeff-Com: -0.864D-03 0.109D-02-0.289D-02-0.663D-02-0.376D-02 0.186D-01
 Coeff-Com:  0.423D+00 0.572D+00
 Coeff:     -0.864D-03 0.109D-02-0.289D-02-0.663D-02-0.376D-02 0.186D-01
 Coeff:      0.423D+00 0.572D+00
 Gap=     0.029 Goal=   None    Shift=    0.000
 Gap=     0.035 Goal=   None    Shift=    0.000
 RMSDP=2.89D-04 MaxDP=1.81D-02 DE=-2.56D-05 OVMax= 8.16D-03

 Cycle   9  Pass 1  IDiag  1:
 E= -1136.08500546470     Delta-E=       -0.000018876706 Rises=F Damp=F
 DIIS: error= 9.57D-05 at cycle   9 NSaved=   9.
 NSaved= 9 IEnMin= 9 EnMin= -1136.08500546470     IErMin= 7 ErrMin= 8.86D-05
 ErrMax= 9.57D-05  0.00D+00 EMaxC= 1.00D-01 BMatC= 1.93D-06 BMatP= 2.38D-06
 IDIUse=1 WtCom= 1.00D+00 WtEn= 0.00D+00
 Coeff-Com: -0.499D-03 0.631D-03-0.222D-02-0.451D-02-0.325D-02 0.113D-01
 Coeff-Com:  0.253D+00 0.375D+00 0.370D+00
 Coeff:     -0.499D-03 0.631D-03-0.222D-02-0.451D-02-0.325D-02 0.113D-01
 Coeff:      0.253D+00 0.375D+00 0.370D+00
 Gap=     0.029 Goal=   None    Shift=    0.000
 Gap=     0.035 Goal=   None    Shift=    0.000
 RMSDP=1.78D-04 MaxDP=1.13D-02 DE=-1.89D-05 OVMax= 5.28D-03

 Cycle  10  Pass 1  IDiag  1:
 E= -1136.08501780277     Delta-E=       -0.000012338062 Rises=F Damp=F
 DIIS: error= 9.94D-05 at cycle  10 NSaved=  10.
 NSaved=10 IEnMin=10 EnMin= -1136.08501780277     IErMin= 7 ErrMin= 8.86D-05
 ErrMax= 9.94D-05  0.00D+00 EMaxC= 1.00D-01 BMatC= 1.99D-06 BMatP= 1.93D-06
 IDIUse=1 WtCom= 1.00D+00 WtEn= 0.00D+00
 Coeff-Com:  0.848D-04-0.117D-03-0.232D-02-0.576D-02-0.256D-01-0.281D-01
 Coeff-Com:  0.342D+00 0.894D+00 0.261D+01-0.278D+01
 Coeff:      0.848D-04-0.117D-03-0.232D-02-0.576D-02-0.256D-01-0.281D-01
 Coeff:      0.342D+00 0.894D+00 0.261D+01-0.278D+01
 Gap=     0.029 Goal=   None    Shift=    0.000
 Gap=     0.035 Goal=   None    Shift=    0.000
 RMSDP=7.39D-04 MaxDP=5.02D-02 DE=-1.23D-05 OVMax= 2.01D-02

 Cycle  11  Pass 1  IDiag  1:
 E= -1136.08497317071     Delta-E=        0.000044632057 Rises=F Damp=F
 DIIS: error= 8.50D-05 at cycle  11 NSaved=  11.
 NSaved=11 IEnMin=10 EnMin= -1136.08501780277     IErMin=11 ErrMin= 8.50D-05
 ErrMax= 8.50D-05  0.00D+00 EMaxC= 1.00D-01 BMatC= 1.62D-06 BMatP= 1.93D-06
 IDIUse=1 WtCom= 1.00D+00 WtEn= 0.00D+00
 Coeff-Com:  0.148D-02-0.190D-02 0.974D-05 0.216D-02-0.465D-01-0.908D-01
 Coeff-Com: -0.129D+00 0.600D+00 0.453D+01-0.692D+01 0.306D+01
 Coeff:      0.148D-02-0.190D-02 0.974D-05 0.216D-02-0.465D-01-0.908D-01
 Coeff:     -0.129D+00 0.600D+00 0.453D+01-0.692D+01 0.306D+01
 Gap=     0.029 Goal=   None    Shift=    0.000
 Gap=     0.035 Goal=   None    Shift=    0.000
 RMSDP=2.31D-03 MaxDP=1.66D-01 DE= 4.46D-05 OVMax= 6.00D-02

 Cycle  12  Pass 1  IDiag  1:
 E= -1136.08488418447     Delta-E=        0.000088986234 Rises=F Damp=F
 DIIS: error= 4.98D-05 at cycle  12 NSaved=  12.
 NSaved=12 IEnMin=10 EnMin= -1136.08501780277     IErMin=12 ErrMin= 4.98D-05
 ErrMax= 4.98D-05  0.00D+00 EMaxC= 1.00D-01 BMatC= 1.06D-06 BMatP= 1.62D-06
 IDIUse=1 WtCom= 1.00D+00 WtEn= 0.00D+00
 Coeff-Com: -0.134D-02 0.184D-02-0.249D-02 0.451D-02 0.451D-01 0.781D-01
 Coeff-Com: -0.284D+00-0.554D+00-0.680D+00 0.118D+01-0.267D+00 0.148D+01
 Coeff:     -0.134D-02 0.184D-02-0.249D-02 0.451D-02 0.451D-01 0.781D-01
 Coeff:     -0.284D+00-0.554D+00-0.680D+00 0.118D+01-0.267D+00 0.148D+01
 Gap=     0.029 Goal=   None    Shift=    0.000
 Gap=     0.035 Goal=   None    Shift=    0.000
 RMSDP=8.21D-04 MaxDP=7.28D-02 DE= 8.90D-05 OVMax= 1.83D-02

 Cycle  13  Pass 1  IDiag  1:
 E= -1136.08487597682     Delta-E=        0.000008207658 Rises=F Damp=F
 DIIS: error= 3.44D-05 at cycle  13 NSaved=  13.
 NSaved=13 IEnMin=10 EnMin= -1136.08501780277     IErMin=13 ErrMin= 3.44D-05
 ErrMax= 3.44D-05  0.00D+00 EMaxC= 1.00D-01 BMatC= 4.11D-07 BMatP= 1.06D-06
 IDIUse=1 WtCom= 1.00D+00 WtEn= 0.00D+00
 Coeff-Com: -0.109D-02 0.149D-02-0.112D-02 0.181D-02 0.331D-01 0.627D-01
 Coeff-Com: -0.771D-01-0.507D+00-0.165D+01 0.231D+01-0.699D+00 0.409D+00
 Coeff-Com:  0.111D+01
 Coeff:     -0.109D-02 0.149D-02-0.112D-02 0.181D-02 0.331D-01 0.627D-01
 Coeff:     -0.771D-01-0.507D+00-0.165D+01 0.231D+01-0.699D+00 0.409D+00
 Coeff:      0.111D+01
 Gap=     0.029 Goal=   None    Shift=    0.000
 Gap=     0.035 Goal=   None    Shift=    0.000
 RMSDP=6.53D-04 MaxDP=5.71D-02 DE= 8.21D-06 OVMax= 1.52D-02

 Cycle  14  Pass 1  IDiag  1:
 E= -1136.08487347620     Delta-E=        0.000002500613 Rises=F Damp=F
 DIIS: error= 2.84D-05 at cycle  14 NSaved=  14.
 NSaved=14 IEnMin=10 EnMin= -1136.08501780277     IErMin=14 ErrMin= 2.84D-05
 ErrMax= 2.84D-05  0.00D+00 EMaxC= 1.00D-01 BMatC= 2.22D-07 BMatP= 4.11D-07
 IDIUse=1 WtCom= 1.00D+00 WtEn= 0.00D+00
 Coeff-Com:  0.387D-03-0.527D-03 0.560D-03-0.893D-03-0.115D-01-0.164D-01
 Coeff-Com:  0.126D+00 0.991D-01-0.168D+00 0.220D+00-0.228D+00-0.595D+00
 Coeff-Com:  0.397D+00 0.118D+01
 Coeff:      0.387D-03-0.527D-03 0.560D-03-0.893D-03-0.115D-01-0.164D-01
 Coeff:      0.126D+00 0.991D-01-0.168D+00 0.220D+00-0.228D+00-0.595D+00
 Coeff:      0.397D+00 0.118D+01
 Gap=     0.029 Goal=   None    Shift=    0.000
 Gap=     0.035 Goal=   None    Shift=    0.000
 RMSDP=4.51D-04 MaxDP=3.00D-02 DE= 2.50D-06 OVMax= 1.31D-02

 Cycle  15  Pass 1  IDiag  1:
 E= -1136.08487538233     Delta-E=       -0.000001906126 Rises=F Damp=F
 DIIS: error= 2.67D-05 at cycle  15 NSaved=  15.
 NSaved=15 IEnMin=10 EnMin= -1136.08501780277     IErMin=15 ErrMin= 2.67D-05
 ErrMax= 2.67D-05  0.00D+00 EMaxC= 1.00D-01 BMatC= 1.21D-07 BMatP= 2.22D-07
 IDIUse=1 WtCom= 1.00D+00 WtEn= 0.00D+00
 Coeff-Com:  0.461D-03-0.618D-03 0.480D-03-0.164D-02-0.222D-01-0.360D-01
 Coeff-Com:  0.160D+00 0.373D+00 0.465D+00-0.557D+00-0.139D+00-0.518D+00
 Coeff-Com: -0.364D+00 0.467D+00 0.117D+01
 Coeff:      0.461D-03-0.618D-03 0.480D-03-0.164D-02-0.222D-01-0.360D-01
 Coeff:      0.160D+00 0.373D+00 0.465D+00-0.557D+00-0.139D+00-0.518D+00
 Coeff:     -0.364D+00 0.467D+00 0.117D+01
 Gap=     0.029 Goal=   None    Shift=    0.000
 Gap=     0.035 Goal=   None    Shift=    0.000
 RMSDP=4.11D-04 MaxDP=3.33D-02 DE=-1.91D-06 OVMax= 1.06D-02

 Cycle  16  Pass 1  IDiag  1:
 E= -1136.08487771238     Delta-E=       -0.000002330055 Rises=F Damp=F
 DIIS: error= 9.58D-06 at cycle  16 NSaved=  16.
 NSaved=16 IEnMin=10 EnMin= -1136.08501780277     IErMin=16 ErrMin= 9.58D-06
 ErrMax= 9.58D-06  0.00D+00 EMaxC= 1.00D-01 BMatC= 4.81D-08 BMatP= 1.21D-07
 IDIUse=1 WtCom= 1.00D+00 WtEn= 0.00D+00
 Coeff-Com:  0.142D-03-0.174D-03 0.228D-03-0.329D-03-0.122D-01-0.212D-01
 Coeff-Com:  0.387D-01 0.175D+00 0.349D+00-0.560D+00 0.176D+00 0.215D-01
 Coeff-Com: -0.366D+00-0.289D+00 0.435D+00 0.105D+01
 Coeff:      0.142D-03-0.174D-03 0.228D-03-0.329D-03-0.122D-01-0.212D-01
 Coeff:      0.387D-01 0.175D+00 0.349D+00-0.560D+00 0.176D+00 0.215D-01
 Coeff:     -0.366D+00-0.289D+00 0.435D+00 0.105D+01
 Gap=     0.029 Goal=   None    Shift=    0.000
 Gap=     0.035 Goal=   None    Shift=    0.000
 RMSDP=2.70D-04 MaxDP=2.02D-02 DE=-2.33D-06 OVMax= 5.62D-03

 Cycle  17  Pass 1  IDiag  1:
 E= -1136.08487854298     Delta-E=       -0.000000830593 Rises=F Damp=F
 DIIS: error= 6.08D-06 at cycle  17 NSaved=  17.
 NSaved=17 IEnMin=10 EnMin= -1136.08501780277     IErMin=17 ErrMin= 6.08D-06
 ErrMax= 6.08D-06  0.00D+00 EMaxC= 1.00D-01 BMatC= 1.58D-08 BMatP= 4.81D-08
 IDIUse=1 WtCom= 1.00D+00 WtEn= 0.00D+00
 Coeff-Com:  0.148D-03-0.185D-03 0.626D-04 0.674D-03-0.628D-03-0.140D-02
 Coeff-Com: -0.434D-01-0.573D-01 0.243D+00-0.414D+00 0.281D+00 0.136D+00
 Coeff-Com:  0.376D-01-0.123D+00-0.494D+00 0.106D+00 0.133D+01
 Coeff:      0.148D-03-0.185D-03 0.626D-04 0.674D-03-0.628D-03-0.140D-02
 Coeff:     -0.434D-01-0.573D-01 0.243D+00-0.414D+00 0.281D+00 0.136D+00
 Coeff:      0.376D-01-0.123D+00-0.494D+00 0.106D+00 0.133D+01
 Gap=     0.029 Goal=   None    Shift=    0.000
 Gap=     0.035 Goal=   None    Shift=    0.000
 RMSDP=1.95D-04 MaxDP=1.18D-02 DE=-8.31D-07 OVMax= 3.32D-03

 Cycle  18  Pass 1  IDiag  1:
 E= -1136.08487882507     Delta-E=       -0.000000282094 Rises=F Damp=F
 DIIS: error= 4.95D-06 at cycle  18 NSaved=  18.
 NSaved=18 IEnMin=10 EnMin= -1136.08501780277     IErMin=18 ErrMin= 4.95D-06
 ErrMax= 4.95D-06  0.00D+00 EMaxC= 1.00D-01 BMatC= 1.30D-08 BMatP= 1.58D-08
 IDIUse=1 WtCom= 1.00D+00 WtEn= 0.00D+00
 Coeff-Com: -0.583D-04 0.755D-04-0.176D-03 0.126D-03 0.335D-02 0.715D-02
 Coeff-Com:  0.736D-02-0.251D-01 0.296D-01 0.789D-02-0.449D-01-0.122D+00
 Coeff-Com:  0.226D+00 0.153D+00-0.271D+00-0.316D+00 0.237D+00 0.111D+01
 Coeff:     -0.583D-04 0.755D-04-0.176D-03 0.126D-03 0.335D-02 0.715D-02
 Coeff:      0.736D-02-0.251D-01 0.296D-01 0.789D-02-0.449D-01-0.122D+00
 Coeff:      0.226D+00 0.153D+00-0.271D+00-0.316D+00 0.237D+00 0.111D+01
 Gap=     0.029 Goal=   None    Shift=    0.000
 Gap=     0.035 Goal=   None    Shift=    0.000
 RMSDP=8.01D-05 MaxDP=6.02D-03 DE=-2.82D-07 OVMax= 7.74D-04

 Cycle  19  Pass 1  IDiag  1:
 E= -1136.08487889149     Delta-E=       -0.000000066417 Rises=F Damp=F
 DIIS: error= 1.90D-06 at cycle  19 NSaved=  19.
 NSaved=19 IEnMin=10 EnMin= -1136.08501780277     IErMin=19 ErrMin= 1.90D-06
 ErrMax= 1.90D-06  0.00D+00 EMaxC= 1.00D-01 BMatC= 1.64D-09 BMatP= 1.30D-08
 IDIUse=1 WtCom= 1.00D+00 WtEn= 0.00D+00
 Coeff-Com:  0.487D-06-0.118D-05 0.284D-05 0.134D-04-0.779D-03-0.211D-02
 Coeff-Com: -0.214D-02 0.170D-01 0.243D-01-0.168D-01 0.924D-03-0.550D-01
 Coeff-Com:  0.353D-02 0.146D-01 0.935D-01-0.519D-01-0.337D+00-0.187D+00
 Coeff-Com:  0.150D+01
 Coeff:      0.487D-06-0.118D-05 0.284D-05 0.134D-04-0.779D-03-0.211D-02
 Coeff:     -0.214D-02 0.170D-01 0.243D-01-0.168D-01 0.924D-03-0.550D-01
 Coeff:      0.353D-02 0.146D-01 0.935D-01-0.519D-01-0.337D+00-0.187D+00
 Coeff:      0.150D+01
 Gap=     0.029 Goal=   None    Shift=    0.000
 Gap=     0.035 Goal=   None    Shift=    0.000
 RMSDP=9.25D-05 MaxDP=5.83D-03 DE=-6.64D-08 OVMax= 1.25D-03

 Cycle  20  Pass 1  IDiag  1:
 E= -1136.08487891558     Delta-E=       -0.000000024094 Rises=F Damp=F
 DIIS: error= 1.16D-06 at cycle  20 NSaved=  20.
 NSaved=20 IEnMin=10 EnMin= -1136.08501780277     IErMin=20 ErrMin= 1.16D-06
 ErrMax= 1.16D-06  0.00D+00 EMaxC= 1.00D-01 BMatC= 4.62D-10 BMatP= 1.64D-09
 IDIUse=1 WtCom= 1.00D+00 WtEn= 0.00D+00
 Coeff-Com:  0.179D-04-0.244D-04 0.653D-04-0.412D-05-0.563D-03-0.130D-02
 Coeff-Com: -0.309D-02 0.245D-02-0.860D-02 0.289D-02 0.124D-01 0.163D-01
 Coeff-Com: -0.305D-01-0.194D-01 0.400D-01 0.173D-01-0.764D-01-0.135D+00
 Coeff-Com:  0.287D+00 0.897D+00
 Coeff:      0.179D-04-0.244D-04 0.653D-04-0.412D-05-0.563D-03-0.130D-02
 Coeff:     -0.309D-02 0.245D-02-0.860D-02 0.289D-02 0.124D-01 0.163D-01
 Coeff:     -0.305D-01-0.194D-01 0.400D-01 0.173D-01-0.764D-01-0.135D+00
 Coeff:      0.287D+00 0.897D+00
 Gap=     0.029 Goal=   None    Shift=    0.000
 Gap=     0.035 Goal=   None    Shift=    0.000
 RMSDP=1.69D-05 MaxDP=1.37D-03 DE=-2.41D-08 OVMax= 2.59D-04

 Cycle  21  Pass 1  IDiag  1:
 E= -1136.08487891609     Delta-E=       -0.000000000507 Rises=F Damp=F
 DIIS: error= 3.07D-07 at cycle  21 NSaved=  20.
 NSaved=20 IEnMin= 9 EnMin= -1136.08501780277     IErMin=20 ErrMin= 3.07D-07
 ErrMax= 3.07D-07  0.00D+00 EMaxC= 1.00D-01 BMatC= 3.79D-11 BMatP= 4.62D-10
 IDIUse=1 WtCom= 1.00D+00 WtEn= 0.00D+00
 Coeff-Com: -0.610D-06 0.106D-04 0.337D-05 0.125D-03 0.820D-04-0.125D-03
 Coeff-Com: -0.209D-02-0.560D-02 0.300D-02 0.215D-02 0.991D-02-0.469D-02
 Coeff-Com: -0.260D-02-0.253D-02 0.608D-02 0.224D-01 0.255D-01-0.147D+00
 Coeff-Com:  0.606D-01 0.104D+01
 Coeff:     -0.610D-06 0.106D-04 0.337D-05 0.125D-03 0.820D-04-0.125D-03
 Coeff:     -0.209D-02-0.560D-02 0.300D-02 0.215D-02 0.991D-02-0.469D-02
 Coeff:     -0.260D-02-0.253D-02 0.608D-02 0.224D-01 0.255D-01-0.147D+00
 Coeff:      0.606D-01 0.104D+01
 Gap=     0.029 Goal=   None    Shift=    0.000
 Gap=     0.035 Goal=   None    Shift=    0.000
 RMSDP=3.54D-06 MaxDP=2.53D-04 DE=-5.07D-10 OVMax= 8.84D-05

 Cycle  22  Pass 1  IDiag  1:
 E= -1136.08487891622     Delta-E=       -0.000000000131 Rises=F Damp=F
 DIIS: error= 1.07D-07 at cycle  22 NSaved=  20.
 NSaved=20 IEnMin= 8 EnMin= -1136.08501780277     IErMin=20 ErrMin= 1.07D-07
 ErrMax= 1.07D-07  0.00D+00 EMaxC= 1.00D-01 BMatC= 6.70D-12 BMatP= 3.79D-11
 IDIUse=1 WtCom= 1.00D+00 WtEn= 0.00D+00
 Coeff-Com: -0.198D-07 0.762D-05 0.384D-04 0.477D-04 0.932D-04-0.392D-03
 Coeff-Com:  0.947D-03-0.117D-02-0.319D-03 0.103D-02 0.821D-03-0.466D-04
 Coeff-Com: -0.326D-02 0.367D-02 0.113D-01 0.195D-02-0.488D-01-0.514D-01
 Coeff-Com:  0.225D+00 0.860D+00
 Coeff:     -0.198D-07 0.762D-05 0.384D-04 0.477D-04 0.932D-04-0.392D-03
 Coeff:      0.947D-03-0.117D-02-0.319D-03 0.103D-02 0.821D-03-0.466D-04
 Coeff:     -0.326D-02 0.367D-02 0.113D-01 0.195D-02-0.488D-01-0.514D-01
 Coeff:      0.225D+00 0.860D+00
 Gap=     0.029 Goal=   None    Shift=    0.000
 Gap=     0.035 Goal=   None    Shift=    0.000
 RMSDP=4.53D-07 MaxDP=3.35D-05 DE=-1.31D-10 OVMax= 1.09D-05

 Cycle  23  Pass 1  IDiag  1:
 E= -1136.08487891623     Delta-E=       -0.000000000013 Rises=F Damp=F
 DIIS: error= 4.99D-08 at cycle  23 NSaved=  20.
 NSaved=20 IEnMin= 7 EnMin= -1136.08501780277     IErMin=20 ErrMin= 4.99D-08
 ErrMax= 4.99D-08  0.00D+00 EMaxC= 1.00D-01 BMatC= 1.35D-12 BMatP= 6.70D-12
 IDIUse=1 WtCom= 1.00D+00 WtEn= 0.00D+00
 Coeff-Com:  0.595D-05 0.197D-04 0.544D-04-0.171D-03-0.366D-03 0.100D-02
 Coeff-Com: -0.132D-02 0.860D-03-0.114D-02 0.219D-02 0.195D-03-0.369D-02
 Coeff-Com: -0.502D-03 0.656D-02-0.986D-03-0.374D-02-0.150D-01-0.142D+00
 Coeff-Com: -0.965D-01 0.125D+01
 Coeff:      0.595D-05 0.197D-04 0.544D-04-0.171D-03-0.366D-03 0.100D-02
 Coeff:     -0.132D-02 0.860D-03-0.114D-02 0.219D-02 0.195D-03-0.369D-02
 Coeff:     -0.502D-03 0.656D-02-0.986D-03-0.374D-02-0.150D-01-0.142D+00
 Coeff:     -0.965D-01 0.125D+01
 Gap=     0.029 Goal=   None    Shift=    0.000
 Gap=     0.035 Goal=   None    Shift=    0.000
 RMSDP=4.33D-07 MaxDP=4.01D-05 DE=-1.34D-11 OVMax= 7.27D-06

 Cycle  24  Pass 1  IDiag  1:
 E= -1136.08487891623     Delta-E=       -0.000000000001 Rises=F Damp=F
 DIIS: error= 2.80D-08 at cycle  24 NSaved=  20.
 NSaved=20 IEnMin= 6 EnMin= -1136.08501780277     IErMin=20 ErrMin= 2.80D-08
 ErrMax= 2.80D-08  0.00D+00 EMaxC= 1.00D-01 BMatC= 3.03D-13 BMatP= 1.35D-12
 IDIUse=1 WtCom= 1.00D+00 WtEn= 0.00D+00
 Coeff-Com:  0.444D-05 0.139D-04-0.749D-04-0.152D-03 0.115D-03-0.293D-03
 Coeff-Com:  0.459D-03-0.176D-03 0.561D-03 0.170D-03-0.111D-02-0.126D-02
 Coeff-Com:  0.145D-02 0.220D-02-0.130D-02 0.127D-01-0.391D-01-0.248D+00
 Coeff-Com:  0.626D-01 0.121D+01
 Coeff:      0.444D-05 0.139D-04-0.749D-04-0.152D-03 0.115D-03-0.293D-03
 Coeff:      0.459D-03-0.176D-03 0.561D-03 0.170D-03-0.111D-02-0.126D-02
 Coeff:      0.145D-02 0.220D-02-0.130D-02 0.127D-01-0.391D-01-0.248D+00
 Coeff:      0.626D-01 0.121D+01
 Gap=     0.029 Goal=   None    Shift=    0.000
 Gap=     0.035 Goal=   None    Shift=    0.000
 RMSDP=2.54D-07 MaxDP=2.38D-05 DE=-6.82D-13 OVMax= 6.08D-06

 Cycle  25  Pass 1  IDiag  1:
 E= -1136.08487891624     Delta-E=       -0.000000000010 Rises=F Damp=F
 DIIS: error= 1.02D-08 at cycle  25 NSaved=  20.
 NSaved=20 IEnMin= 5 EnMin= -1136.08501780277     IErMin=20 ErrMin= 1.02D-08
 ErrMax= 1.02D-08  0.00D+00 EMaxC= 1.00D-01 BMatC= 4.57D-14 BMatP= 3.03D-13
 IDIUse=1 WtCom= 1.00D+00 WtEn= 0.00D+00
 Coeff-Com: -0.317D-05 0.215D-04 0.611D-04 0.685D-04-0.565D-04-0.142D-03
 Coeff-Com:  0.135D-04 0.624D-04 0.271D-03 0.185D-03-0.652D-03-0.206D-03
 Coeff-Com:  0.288D-02-0.366D-02-0.232D-02 0.378D-01-0.112D-01-0.248D+00
 Coeff-Com:  0.242D+00 0.983D+00
 Coeff:     -0.317D-05 0.215D-04 0.611D-04 0.685D-04-0.565D-04-0.142D-03
 Coeff:      0.135D-04 0.624D-04 0.271D-03 0.185D-03-0.652D-03-0.206D-03
 Coeff:      0.288D-02-0.366D-02-0.232D-02 0.378D-01-0.112D-01-0.248D+00
 Coeff:      0.242D+00 0.983D+00
 Gap=     0.029 Goal=   None    Shift=    0.000
 Gap=     0.035 Goal=   None    Shift=    0.000
 RMSDP=1.35D-07 MaxDP=1.22D-05 DE=-1.05D-11 OVMax= 2.77D-06

 Cycle  26  Pass 1  IDiag  1:
 E= -1136.08487891625     Delta-E=       -0.000000000004 Rises=F Damp=F
 DIIS: error= 6.28D-09 at cycle  26 NSaved=  20.
 NSaved=20 IEnMin= 4 EnMin= -1136.08501780277     IErMin=20 ErrMin= 6.28D-09
 ErrMax= 6.28D-09  0.00D+00 EMaxC= 1.00D-01 BMatC= 1.56D-14 BMatP= 4.57D-14
 IDIUse=1 WtCom= 1.00D+00 WtEn= 0.00D+00
 Coeff-Com:  0.296D-04-0.232D-05-0.820D-04 0.949D-04-0.631D-04 0.128D-03
 Coeff-Com: -0.191D-03 0.422D-05 0.172D-03 0.104D-03 0.341D-03 0.274D-03
 Coeff-Com: -0.302D-02-0.971D-03 0.214D-01 0.309D-01-0.565D-01-0.170D+00
 Coeff-Com:  0.132D+00 0.105D+01
 Coeff:      0.296D-04-0.232D-05-0.820D-04 0.949D-04-0.631D-04 0.128D-03
 Coeff:     -0.191D-03 0.422D-05 0.172D-03 0.104D-03 0.341D-03 0.274D-03
 Coeff:     -0.302D-02-0.971D-03 0.214D-01 0.309D-01-0.565D-01-0.170D+00
 Coeff:      0.132D+00 0.105D+01
 Gap=     0.029 Goal=   None    Shift=    0.000
 Gap=     0.035 Goal=   None    Shift=    0.000
 RMSDP=7.42D-08 MaxDP=5.83D-06 DE=-3.64D-12 OVMax= 1.73D-06

 Cycle  27  Pass 1  IDiag  1:
 E= -1136.08487891625     Delta-E=        0.000000000001 Rises=F Damp=F
 DIIS: error= 1.49D-09 at cycle  27 NSaved=  20.
 NSaved=20 IEnMin= 4 EnMin= -1136.08501780277     IErMin=20 ErrMin= 1.49D-09
 ErrMax= 1.49D-09  0.00D+00 EMaxC= 1.00D-01 BMatC= 9.98D-16 BMatP= 1.56D-14
 IDIUse=1 WtCom= 1.00D+00 WtEn= 0.00D+00
 Large coefficients: NSaved= 20 BigCof=    0.00 CofMax=   10.00 Det=-1.59D-15
 Inversion failed.  Reducing to 19 matrices.
 Large coefficients: NSaved= 19 BigCof=    0.00 CofMax=   10.00 Det=-1.95D-15
 Inversion failed.  Reducing to 18 matrices.
 Large coefficients: NSaved= 18 BigCof=    0.00 CofMax=   10.00 Det=-3.31D-15
 Inversion failed.  Reducing to 17 matrices.
 Large coefficients: NSaved= 17 BigCof=    0.00 CofMax=   10.00 Det=-3.31D-15
 Inversion failed.  Reducing to 16 matrices.
 Large coefficients: NSaved= 16 BigCof=    0.00 CofMax=   10.00 Det=-3.64D-15
 Inversion failed.  Reducing to 15 matrices.
 Coeff-Com: -0.236D-06-0.417D-05 0.106D-04-0.755D-05-0.377D-05 0.568D-05
 Coeff-Com:  0.929D-04 0.432D-04-0.627D-03 0.454D-02 0.711D-02-0.416D-01
 Coeff-Com: -0.572D-01 0.418D-01 0.105D+01
 Coeff:     -0.236D-06-0.417D-05 0.106D-04-0.755D-05-0.377D-05 0.568D-05
 Coeff:      0.929D-04 0.432D-04-0.627D-03 0.454D-02 0.711D-02-0.416D-01
 Coeff:     -0.572D-01 0.418D-01 0.105D+01
 Gap=     0.029 Goal=   None    Shift=    0.000
 Gap=     0.035 Goal=   None    Shift=    0.000
 RMSDP=2.62D-08 MaxDP=1.92D-06 DE= 9.09D-13 OVMax= 4.01D-07

 Cycle  28  Pass 1  IDiag  1:
 E= -1136.08487891624     Delta-E=        0.000000000010 Rises=F Damp=F
 DIIS: error= 7.77D-10 at cycle  28 NSaved=  16.
 NSaved=16 IEnMin= 4 EnMin= -1136.08501780277     IErMin=16 ErrMin= 7.77D-10
 ErrMax= 7.77D-10  0.00D+00 EMaxC= 1.00D-01 BMatC= 2.22D-16 BMatP= 9.98D-16
 IDIUse=1 WtCom= 1.00D+00 WtEn= 0.00D+00
 Large coefficients: NSaved= 16 BigCof=    0.00 CofMax=   10.00 Det=-3.32D-16
 Inversion failed.  Reducing to 15 matrices.
 Coeff-Com: -0.274D-05-0.687D-07 0.142D-04-0.192D-04 0.976D-05-0.158D-05
 Coeff-Com: -0.447D-04-0.991D-04-0.345D-03-0.293D-02 0.210D-01-0.307D-02
 Coeff-Com: -0.120D+00-0.462D-01 0.115D+01
 Coeff:     -0.274D-05-0.687D-07 0.142D-04-0.192D-04 0.976D-05-0.158D-05
 Coeff:     -0.447D-04-0.991D-04-0.345D-03-0.293D-02 0.210D-01-0.307D-02
 Coeff:     -0.120D+00-0.462D-01 0.115D+01
 Gap=     0.029 Goal=   None    Shift=    0.000
 Gap=     0.035 Goal=   None    Shift=    0.000
 RMSDP=6.86D-09 MaxDP=7.53D-07 DE= 9.55D-12 OVMax= 1.23D-07

 SCF Done:  E(UB3LYP) =  -1136.08487892     A.U. after   28 cycles
            NFock= 28  Conv=0.69D-08     -V/T= 2.0025
 <Sx>= 0.0000 <Sy>= 0.0000 <Sz>= 0.5000 <S**2>= 0.7750 S= 0.5124
 <L.S>= 0.000000000000E+00
 KE= 1.133280053979D+03 PE=-3.439240403439D+03 EE= 8.148842600715D+02
 Annihilation of the first spin contaminant:
 S**2 before annihilation     0.7750,   after     0.7503
 Leave Link  502 at Mon Nov 13 16:32:24 2023, MaxMem=  1879048192 cpu:             265.3 elap:              23.2
 (Enter /home/sekinelabo/g16/l601.exe)
 Copying SCF densities to generalized density rwf, IOpCl= 1 IROHF=0.

 **********************************************************************

            Population analysis using the SCF Density.

 **********************************************************************

 Orbital symmetries:
 Alpha Orbitals:
       Occupied  (A) (A) (A) (A) (A) (A) (A) (A) (A) (A) (A) (A)
                 (A) (A) (A) (A) (A) (A) (A) (A) (A) (A) (A) (A)
                 (A) (A) (A) (A) (A) (A) (A) (A) (A) (A) (A) (A)
                 (A) (A) (A)
       Virtual   (A) (A) (A) (A) (A) (A) (A) (A) (A) (A) (A) (A)
                 (A) (A) (A) (A) (A) (A) (A) (A) (A) (A) (A) (A)
                 (A) (A) (A) (A) (A) (A) (A) (A) (A) (A) (A) (A)
                 (A) (A) (A) (A) (A) (A) (A) (A) (A) (A) (A) (A)
                 (A) (A) (A) (A) (A) (A) (A) (A) (A) (A) (A) (A)
                 (A) (A) (A) (A) (A) (A) (A) (A) (A) (A) (A) (A)
                 (A) (A) (A) (A) (A) (A) (A) (A) (A) (A) (A) (A)
                 (A) (A) (A) (A) (A) (A) (A) (A) (A) (A) (A) (A)
                 (A) (A) (A) (A) (A) (A) (A) (A) (A) (A) (A) (A)
                 (A) (A) (A) (A) (A) (A) (A) (A) (A) (A) (A) (A)
                 (A) (A) (A) (A) (A) (A) (A) (A) (A) (A) (A) (A)
                 (A) (A) (A) (A) (A) (A) (A) (A) (A) (A) (A) (A)
                 (A) (A) (A) (A) (A) (A) (A) (A) (A) (A) (A) (A)
                 (A) (A) (A) (A) (A) (A) (A) (A) (A) (A) (A) (A)
                 (A) (A) (A)
 Beta  Orbitals:
       Occupied  (A) (A) (A) (A) (A) (A) (A) (A) (A) (A) (A) (A)
                 (A) (A) (A) (A) (A) (A) (A) (A) (A) (A) (A) (A)
                 (A) (A) (A) (A) (A) (A) (A) (A) (A) (A) (A) (A)
                 (A) (A)
       Virtual   (A) (A) (A) (A) (A) (A) (A) (A) (A) (A) (A) (A)
                 (A) (A) (A) (A) (A) (A) (A) (A) (A) (A) (A) (A)
                 (A) (A) (A) (A) (A) (A) (A) (A) (A) (A) (A) (A)
                 (A) (A) (A) (A) (A) (A) (A) (A) (A) (A) (A) (A)
                 (A) (A) (A) (A) (A) (A) (A) (A) (A) (A) (A) (A)
                 (A) (A) (A) (A) (A) (A) (A) (A) (A) (A) (A) (A)
                 (A) (A) (A) (A) (A) (A) (A) (A) (A) (A) (A) (A)
                 (A) (A) (A) (A) (A) (A) (A) (A) (A) (A) (A) (A)
                 (A) (A) (A) (A) (A) (A) (A) (A) (A) (A) (A) (A)
                 (A) (A) (A) (A) (A) (A) (A) (A) (A) (A) (A) (A)
                 (A) (A) (A) (A) (A) (A) (A) (A) (A) (A) (A) (A)
                 (A) (A) (A) (A) (A) (A) (A) (A) (A) (A) (A) (A)
                 (A) (A) (A) (A) (A) (A) (A) (A) (A) (A) (A) (A)
                 (A) (A) (A) (A) (A) (A) (A) (A) (A) (A) (A) (A)
                 (A) (A) (A) (A)
 The electronic state is 2-A.
 Alpha  occ. eigenvalues --  -38.45583 -38.44847 -38.44621 -38.44084 -38.43505
 Alpha  occ. eigenvalues --  -38.43216 -38.42821  -2.21733  -2.20947  -2.20414
 Alpha  occ. eigenvalues --   -2.20198  -2.19485  -2.19220  -2.18913  -1.15476
 Alpha  occ. eigenvalues --   -1.15421  -1.15390  -1.14673  -1.14596  -1.14561
 Alpha  occ. eigenvalues --   -1.14120  -1.14059  -1.14056  -1.13889  -1.13841
 Alpha  occ. eigenvalues --   -1.13802  -1.13210  -1.13162  -1.13090  -1.12912
 Alpha  occ. eigenvalues --   -1.12870  -1.12839  -1.12611  -1.12556  -1.12526
 Alpha  occ. eigenvalues --   -0.20379  -0.14482  -0.11879  -0.11012
 Alpha virt. eigenvalues --   -0.08148  -0.04675  -0.03809  -0.03278  -0.03014
 Alpha virt. eigenvalues --   -0.02086  -0.02000  -0.01388  -0.01073  -0.00369
 Alpha virt. eigenvalues --   -0.00142   0.00254   0.00352   0.00605   0.00806
 Alpha virt. eigenvalues --    0.01088   0.01180   0.01303   0.01370   0.01441
 Alpha virt. eigenvalues --    0.01555   0.01634   0.01850   0.01873   0.01996
 Alpha virt. eigenvalues --    0.02061   0.02229   0.02462   0.02509   0.02593
 Alpha virt. eigenvalues --    0.02716   0.02831   0.02859   0.03038   0.03168
 Alpha virt. eigenvalues --    0.03314   0.03415   0.03502   0.03796   0.03852
 Alpha virt. eigenvalues --    0.03971   0.04196   0.04550   0.04966   0.05289
 Alpha virt. eigenvalues --    0.05416   0.05476   0.05613   0.05663   0.05825
 Alpha virt. eigenvalues --    0.06040   0.06308   0.06637   0.07173   0.07317
 Alpha virt. eigenvalues --    0.07624   0.07789   0.08313   0.08439   0.08886
 Alpha virt. eigenvalues --    0.09462   0.09897   0.09971   0.11128   0.11690
 Alpha virt. eigenvalues --    0.11987   0.12361   0.12658   0.12783   0.13090
 Alpha virt. eigenvalues --    0.13366   0.14171   0.14475   0.14788   0.15226
 Alpha virt. eigenvalues --    0.15502   0.16296   0.16394   0.16863   0.17922
 Alpha virt. eigenvalues --    0.24516   0.26527   0.26781   0.27878   0.28688
 Alpha virt. eigenvalues --    0.29613   0.31920   0.32610   0.33718   0.34196
 Alpha virt. eigenvalues --    0.35188   0.35460   0.35895   0.36009   0.36562
 Alpha virt. eigenvalues --    0.37852   0.38264   0.39807   0.41942   0.42090
 Alpha virt. eigenvalues --    0.42901   0.43533   0.43720   0.44051   0.44544
 Alpha virt. eigenvalues --    0.44928   0.45229   0.45372   0.45940   0.46267
 Alpha virt. eigenvalues --    0.46756   0.47304   0.48071   0.48423   0.49336
 Alpha virt. eigenvalues --    0.49534   0.50153   0.51989   0.52799   0.53086
 Alpha virt. eigenvalues --    0.53534   0.54222   0.54727   0.58895   0.64364
 Alpha virt. eigenvalues --    0.65503   0.66341   0.67333   0.69337   0.70658
 Alpha virt. eigenvalues --    0.71759   0.72784   0.74086   0.75723   0.79541
 Alpha virt. eigenvalues --    0.80677   2.09153   2.14915   2.21821   2.24950
 Alpha virt. eigenvalues --    2.26974   2.27696   2.31545   4.40420   4.40704
 Alpha virt. eigenvalues --    4.41180   4.41444   4.41991   4.43154   4.44491
 Alpha virt. eigenvalues --    4.44987   4.45461   4.46949   4.49669   4.53381
 Alpha virt. eigenvalues --    4.55909   4.58211   4.63855   4.66151   4.68553
 Alpha virt. eigenvalues --    4.71428   4.76128   4.80683   4.85033  96.29933
 Alpha virt. eigenvalues --   96.36944  96.46706  96.51667  96.54809  96.55421
 Alpha virt. eigenvalues --   96.60297
  Beta  occ. eigenvalues --  -38.45551 -38.44789 -38.44623 -38.44000 -38.43497
  Beta  occ. eigenvalues --  -38.43206 -38.42805  -2.21684  -2.20846  -2.20418
  Beta  occ. eigenvalues --   -2.20047  -2.19472  -2.19207  -2.18892  -1.15448
  Beta  occ. eigenvalues --   -1.15377  -1.15293  -1.14610  -1.14495  -1.14487
  Beta  occ. eigenvalues --   -1.14124  -1.14062  -1.14058  -1.13796  -1.13731
  Beta  occ. eigenvalues --   -1.13686  -1.13206  -1.13158  -1.13058  -1.12906
  Beta  occ. eigenvalues --   -1.12865  -1.12788  -1.12604  -1.12544  -1.12456
  Beta  occ. eigenvalues --   -0.19538  -0.14365  -0.11417
  Beta virt. eigenvalues --   -0.07886  -0.07005  -0.04644  -0.03513  -0.03022
  Beta virt. eigenvalues --   -0.02788  -0.01472  -0.01347  -0.01124  -0.00565
  Beta virt. eigenvalues --   -0.00222  -0.00120   0.00277   0.00482   0.00660
  Beta virt. eigenvalues --    0.00839   0.01132   0.01207   0.01369   0.01410
  Beta virt. eigenvalues --    0.01547   0.01668   0.01739   0.01948   0.01960
  Beta virt. eigenvalues --    0.02086   0.02111   0.02281   0.02479   0.02580
  Beta virt. eigenvalues --    0.02599   0.02767   0.02875   0.02912   0.03075
  Beta virt. eigenvalues --    0.03219   0.03402   0.03541   0.03558   0.03849
  Beta virt. eigenvalues --    0.03939   0.04047   0.04355   0.04765   0.05037
  Beta virt. eigenvalues --    0.05384   0.05544   0.05673   0.05754   0.05838
  Beta virt. eigenvalues --    0.06040   0.06107   0.06335   0.06774   0.07399
  Beta virt. eigenvalues --    0.07458   0.07738   0.07878   0.08403   0.08512
  Beta virt. eigenvalues --    0.08899   0.09564   0.10054   0.10212   0.11520
  Beta virt. eigenvalues --    0.12066   0.12411   0.12547   0.12843   0.13041
  Beta virt. eigenvalues --    0.13318   0.13647   0.14310   0.14609   0.15008
  Beta virt. eigenvalues --    0.15314   0.15788   0.16544   0.16906   0.17031
  Beta virt. eigenvalues --    0.18071   0.24859   0.26744   0.27102   0.28061
  Beta virt. eigenvalues --    0.29004   0.29984   0.32177   0.32941   0.33843
  Beta virt. eigenvalues --    0.34452   0.35375   0.35756   0.36101   0.36178
  Beta virt. eigenvalues --    0.36741   0.38135   0.38580   0.39987   0.42121
  Beta virt. eigenvalues --    0.42310   0.42984   0.43602   0.43887   0.44291
  Beta virt. eigenvalues --    0.44685   0.45196   0.45463   0.45603   0.46164
  Beta virt. eigenvalues --    0.46440   0.46921   0.47415   0.48242   0.48623
  Beta virt. eigenvalues --    0.49471   0.49723   0.50272   0.52212   0.53046
  Beta virt. eigenvalues --    0.53444   0.53749   0.54340   0.54991   0.59047
  Beta virt. eigenvalues --    0.64466   0.65726   0.66686   0.67555   0.69617
  Beta virt. eigenvalues --    0.70846   0.71867   0.73051   0.74108   0.75859
  Beta virt. eigenvalues --    0.79538   0.80805   2.09160   2.14996   2.21861
  Beta virt. eigenvalues --    2.25140   2.27260   2.27768   2.31627   4.40471
  Beta virt. eigenvalues --    4.40745   4.41275   4.41505   4.42083   4.43225
  Beta virt. eigenvalues --    4.44518   4.45009   4.45478   4.46983   4.49732
  Beta virt. eigenvalues --    4.53457   4.55977   4.58284   4.63951   4.66165
  Beta virt. eigenvalues --    4.68593   4.71467   4.76185   4.80724   4.85086
  Beta virt. eigenvalues --   96.29938  96.36974  96.46721  96.51723  96.54899
  Beta virt. eigenvalues --   96.55446  96.60332
          Condensed to atoms (all electrons):
               1          2          3          4          5          6
     1  Na  14.964443  -1.105639  -2.276716  -0.219321   0.674098  -1.348992
     2  Na  -1.105639  12.983480   1.031907  -1.435203   0.281265  -0.026903
     3  Na  -2.276716   1.031907  14.435976  -0.030611  -1.747137  -0.709898
     4  Na  -0.219321  -1.435203  -0.030611  13.186832  -0.166386  -0.395627
     5  Na   0.674098   0.281265  -1.747137  -0.166386  12.536804  -0.231353
     6  Na  -1.348992  -0.026903  -0.709898  -0.395627  -0.231353  16.100993
     7  Na   1.445856  -0.561089  -0.645072  -0.014278  -0.173301  -2.741445
               7
     1  Na   1.445856
     2  Na  -0.561089
     3  Na  -0.645072
     4  Na  -0.014278
     5  Na  -0.173301
     6  Na  -2.741445
     7  Na  13.583159
          Atomic-Atomic Spin Densities.
               1          2          3          4          5          6
     1  Na   1.291816  -0.562720  -0.928721   0.305379   0.108857  -0.252021
     2  Na  -0.562720   1.164588   0.481557  -0.853461   0.264241   0.325655
     3  Na  -0.928721   0.481557   0.275381  -0.252029   0.187697   0.362550
     4  Na   0.305379  -0.853461  -0.252029   0.967710  -0.284855  -0.171923
     5  Na   0.108857   0.264241   0.187697  -0.284855  -0.051214   0.108132
     6  Na  -0.252021   0.325655   0.362550  -0.171923   0.108132   1.539475
     7  Na   0.598292  -0.536790  -0.216557   0.456558  -0.296782  -1.910991
               7
     1  Na   0.598292
     2  Na  -0.536790
     3  Na  -0.216557
     4  Na   0.456558
     5  Na  -0.296782
     6  Na  -1.910991
     7  Na   1.948110
 Mulliken charges and spin densities:
               1          2
     1  Na  -1.133730   0.560881
     2  Na  -0.167818   0.283070
     3  Na   0.941551  -0.090122
     4  Na   0.074594   0.167379
     5  Na  -0.173991   0.036075
     6  Na   0.353224   0.000877
     7  Na   0.106170   0.041839
 Sum of Mulliken charges =  -0.00000   1.00000
 Mulliken charges and spin densities with hydrogens summed into heavy atoms:
               1          2
     1  Na  -1.133730   0.560881
     2  Na  -0.167818   0.283070
     3  Na   0.941551  -0.090122
     4  Na   0.074594   0.167379
     5  Na  -0.173991   0.036075
     6  Na   0.353224   0.000877
     7  Na   0.106170   0.041839
 Electronic spatial extent (au):  <R**2>=           2721.2020
 Charge=             -0.0000 electrons
 Dipole moment (field-independent basis, Debye):
    X=             -0.3692    Y=              0.4631    Z=              0.3436  Tot=              0.6847
 Quadrupole moment (field-independent basis, Debye-Ang):
   XX=            -57.0876   YY=            -70.5060   ZZ=            -70.8510
   XY=             -1.2637   XZ=             -4.0144   YZ=              2.8797
 Traceless Quadrupole moment (field-independent basis, Debye-Ang):
   XX=              9.0606   YY=             -4.3578   ZZ=             -4.7028
   XY=             -1.2637   XZ=             -4.0144   YZ=              2.8797
 Octapole moment (field-independent basis, Debye-Ang**2):
  XXX=             44.5739  YYY=              4.3823  ZZZ=             11.5576  XYY=             -8.3277
  XXY=              2.8283  XXZ=             -0.2485  XZZ=             -9.9409  YZZ=              6.4412
  YYZ=             -2.0726  XYZ=             -0.2609
 Hexadecapole moment (field-independent basis, Debye-Ang**3):
 XXXX=          -2790.5770 YYYY=           -826.2755 ZZZZ=           -575.9323 XXXY=            -47.8799
 XXXZ=            -99.4009 YYYX=             34.2150 YYYZ=             16.7787 ZZZX=            -32.6430
 ZZZY=             20.7460 XXYY=           -682.5344 XXZZ=           -658.2056 YYZZ=           -244.4061
 XXYZ=              9.1868 YYXZ=             -5.8631 ZZXY=            -22.4008
 N-N= 3.549912104720D+02 E-N=-3.439240403473D+03  KE= 1.133280053979D+03
                          Isotropic Fermi Contact Couplings
        Atom                 a.u.       MegaHertz       Gauss      10(-4) cm-1
     1  Na(23)             0.02397      28.35780      10.11877       9.45915
     2  Na(23)             0.34036     402.64998     143.67552     134.30958
     3  Na(23)            -0.01741     -20.59123      -7.34746      -6.86850
     4  Na(23)             0.19403     229.54857      81.90864      76.56916
     5  Na(23)            -0.01605     -18.98738      -6.77517      -6.33351
     6  Na(23)             0.01122      13.26920       4.73478       4.42613
     7  Na(23)            -0.00933     -11.03385      -3.93715      -3.68050
 --------------------------------------------------------
       Center         ----  Spin Dipole Couplings  ----
                      3XX-RR        3YY-RR        3ZZ-RR
 --------------------------------------------------------
     1   Atom       -0.038201     -0.039338      0.077539
     2   Atom       -0.008455      0.008936     -0.000481
     3   Atom       -0.008990     -0.023513      0.032503
     4   Atom       -0.008891      0.021692     -0.012801
     5   Atom       -0.013350     -0.029615      0.042964
     6   Atom        0.007372     -0.011002      0.003629
     7   Atom        0.000407      0.000215     -0.000623
 --------------------------------------------------------
                        XY            XZ            YZ
 --------------------------------------------------------
     1   Atom       -0.007426      0.026595     -0.030187
     2   Atom        0.007029     -0.005950      0.009420
     3   Atom       -0.005052      0.018652     -0.016003
     4   Atom       -0.020492      0.015933     -0.020059
     5   Atom       -0.009033      0.028204     -0.021547
     6   Atom        0.012155     -0.025577      0.000960
     7   Atom       -0.000270      0.001407     -0.000160
 --------------------------------------------------------


 ---------------------------------------------------------------------------------
              Anisotropic Spin Dipole Couplings in Principal Axis System
 ---------------------------------------------------------------------------------

       Atom             a.u.   MegaHertz   Gauss  10(-4) cm-1        Axes

              Baa    -0.0470    -6.632    -2.367    -2.212  0.2979  0.9403  0.1643
     1 Na(23) Bbb    -0.0438    -6.187    -2.208    -2.064  0.9314 -0.2486 -0.2660
              Bcc     0.0908    12.819     4.574     4.276  0.2092 -0.2323  0.9499
 
              Baa    -0.0163    -2.309    -0.824    -0.770  0.7520 -0.4033  0.5214
     2 Na(23) Bbb     0.0012     0.167     0.060     0.056 -0.6440 -0.2809  0.7116
              Bcc     0.0152     2.141     0.764     0.714  0.1406  0.8709  0.4709
 
              Baa    -0.0278    -3.921    -1.399    -1.308  0.0074  0.9670  0.2545
     3 Na(23) Bbb    -0.0161    -2.268    -0.809    -0.756  0.9391  0.0808 -0.3341
              Bcc     0.0438     6.188     2.208     2.064  0.3436 -0.2415  0.9075
 
              Baa    -0.0270    -3.811    -1.360    -1.271 -0.6191  0.0620  0.7829
     4 Na(23) Bbb    -0.0163    -2.299    -0.820    -0.767  0.6510  0.5982  0.4674
              Bcc     0.0433     6.110     2.180     2.038 -0.4393  0.7990 -0.4107
 
              Baa    -0.0357    -5.036    -1.797    -1.680  0.1036  0.9681  0.2282
     5 Na(23) Bbb    -0.0250    -3.537    -1.262    -1.180  0.9228 -0.0079 -0.3852
              Bcc     0.0607     8.572     3.059     2.859  0.3711 -0.2504  0.8942
 
              Baa    -0.0260    -3.670    -1.309    -1.224  0.6264 -0.5438  0.5585
     6 Na(23) Bbb    -0.0068    -0.956    -0.341    -0.319  0.2432  0.8171  0.5228
              Bcc     0.0328     4.626     1.651     1.543  0.7406  0.1916 -0.6440
 
              Baa    -0.0016    -0.227    -0.081    -0.076 -0.5739 -0.0128  0.8189
     7 Na(23) Bbb     0.0001     0.019     0.007     0.006  0.1912  0.9701  0.1492
              Bcc     0.0015     0.207     0.074     0.069  0.7963 -0.2422  0.5543
 

 ---------------------------------------------------------------------------------

 No NMR shielding tensors so no spin-rotation constants.
 Leave Link  601 at Mon Nov 13 16:32:24 2023, MaxMem=  1879048192 cpu:               2.6 elap:               0.2
 (Enter /home/sekinelabo/g16/l701.exe)
 ... and contract with generalized density number  0.
 Compute integral first derivatives.
 Leave Link  701 at Mon Nov 13 16:32:24 2023, MaxMem=  1879048192 cpu:               1.7 elap:               0.1
 (Enter /home/sekinelabo/g16/l702.exe)
 L702 exits ... SP integral derivatives will be done elsewhere.
 Leave Link  702 at Mon Nov 13 16:32:24 2023, MaxMem=  1879048192 cpu:               0.4 elap:               0.0
 (Enter /home/sekinelabo/g16/l703.exe)
 Integral derivatives from FoFJK, PRISM(SPDF).
 Compute integral first derivatives, UseDBF=F ICtDFT=           0.
 Calling FoFJK, ICntrl=      2127 FMM=F ISym2X=0 I1Cent= 0 IOpClX= 1 NMat=1 NMatS=1 NMatT=0.
 FoFJK:  IHMeth= 1 ICntrl=    2127 DoSepK=F KAlg= 0 I1Cent=           0 FoldK=F
 IRaf=         0 NMat=       1 IRICut=       1 DoRegI=T DoRafI=F ISym2E= 0 IDoP0=0 IntGTp=1.
 FoFCou: FMM=F IPFlag=           0 FMFlag=      100000 FMFlg1=         800
         NFxFlg=           0 DoJE=F BraDBF=F KetDBF=F FulRan=T
         wScrn=  0.000000 ICntrl=      2127 IOpCl=  1 I1Cent=           0 NGrid=           0
         NMat0=    1 NMatS0=      1 NMatT0=    0 NMatD0=    1 NMtDS0=    0 NMtDT0=    0
 Symmetry not used in FoFCou.
 Leave Link  703 at Mon Nov 13 16:32:26 2023, MaxMem=  1879048192 cpu:              34.2 elap:               2.2
 (Enter /home/sekinelabo/g16/l716.exe)
 Dipole        =-1.45261205D-01 1.82196556D-01 1.35186573D-01
 ***** Axes restored to original set *****
 -------------------------------------------------------------------
 Center     Atomic                   Forces (Hartrees/Bohr)
 Number     Number              X              Y              Z
 -------------------------------------------------------------------
      1       11           0.005547517   -0.012552980   -0.004945359
      2       11          -0.009548137    0.008905108   -0.014853285
      3       11          -0.012221850   -0.014342216   -0.000043888
      4       11           0.000631669    0.001682057    0.016996397
      5       11           0.006880040    0.018823301   -0.001844070
      6       11           0.005972912   -0.000976897    0.006528652
      7       11           0.002737848   -0.001538373   -0.001838446
 -------------------------------------------------------------------
 Cartesian Forces:  Max     0.018823301 RMS     0.009125123
 Z-matrix is all fixed cartesians, so copy forces.
 Force constants in Cartesian coordinates: 
                1             2             3             4             5 
      1  0.167296D+00
      2 -0.153772D-01  0.175012D+00
      3 -0.128082D-01  0.357101D-01  0.134883D+00
      4 -0.352620D-01  0.121599D-01 -0.205194D-01  0.103818D+00
      5  0.192522D-01 -0.404740D-01  0.188014D-01 -0.472406D-02  0.108108D+00
      6  0.575184D-02 -0.869362D-02 -0.174384D-01  0.370070D-01 -0.330955D-01
      7 -0.476862D-01 -0.223230D-01  0.254010D-02 -0.159417D-01  0.786851D-02
      8  0.188498D-01 -0.229769D-01 -0.940654D-02 -0.216967D-01 -0.381352D-01
      9  0.142008D-01  0.142977D-02 -0.264329D-01  0.745840D-02  0.285063D-01
     10 -0.245613D-01  0.571026D-02  0.210360D-01 -0.121028D-01  0.606639D-03
     11  0.973714D-02 -0.251265D-01 -0.292987D-01  0.125743D-02 -0.114657D-01
     12  0.184409D-02 -0.470909D-02 -0.373925D-01  0.409798D-02 -0.485397D-02
     13 -0.248365D-01  0.977270D-02  0.625209D-02 -0.380620D-01 -0.253867D-01
     14 -0.118013D-01 -0.547362D-01  0.965626D-03  0.103834D-01 -0.294123D-01
     15  0.848082D-03 -0.155850D-01 -0.158201D-01 -0.251861D-01 -0.111813D-01
     16 -0.337173D-01  0.879320D-02  0.158228D-02 -0.243251D-02  0.238791D-02
     17 -0.184888D-01 -0.339536D-01 -0.201253D-01  0.261463D-02  0.113845D-01
     18 -0.694796D-02 -0.111001D-01 -0.423072D-01 -0.279990D-02  0.183506D-02
     19 -0.123233D-02  0.126413D-02  0.191709D-02 -0.165409D-04 -0.454516D-05
     20 -0.217182D-02  0.225532D-02  0.335340D-02  0.537468D-05 -0.549237D-05
     21 -0.288872D-02  0.294803D-02  0.450790D-02 -0.579412D-04 -0.120522D-04
                6             7             8             9            10 
      6  0.107758D+00
      7 -0.129923D-01  0.790997D-01
      8  0.763859D-02  0.327287D-01  0.858000D-01
      9 -0.193045D-01  0.270722D-03  0.721505D-03  0.573283D-01
     10 -0.219297D-01 -0.164008D-01 -0.194826D-01 -0.185507D-01  0.841948D-01
     11  0.194297D-01 -0.878443D-02 -0.263085D-01 -0.310171D-01  0.147213D-01
     12 -0.523393D-01  0.880918D-02 -0.108222D-02 -0.304101D-01 -0.134774D-01
     13 -0.557842D-02  0.129001D-02 -0.919814D-02  0.921140D-04 -0.243121D-01
     14  0.128304D-01 -0.910443D-02 -0.838410D-04  0.209677D-03 -0.202918D-02
     15 -0.220269D-01  0.227600D-03  0.591106D-03  0.103164D-01  0.242642D-01
     16 -0.229924D-02 -0.363402D-03 -0.119232D-02 -0.347355D-02 -0.682715D-02
     17  0.190748D-02 -0.347534D-03  0.156373D-02  0.184681D-03  0.461066D-03
     18  0.320546D-02  0.111589D-02  0.164495D-02  0.847621D-02  0.863362D-02
     19  0.408524D-04  0.236296D-05 -0.879533D-05  0.217793D-05  0.928618D-05
     20 -0.170667D-04 -0.378244D-04  0.140788D-03 -0.348625D-04  0.124571D-04
     21  0.145207D-03  0.288493D-04 -0.107382D-03  0.265903D-04  0.239378D-04
               11            12            13            14            15 
     11  0.828114D-01
     12  0.171541D-01  0.149873D+00
     13 -0.190428D-01  0.142264D-02  0.114566D+00
     14 -0.244247D-01 -0.663554D-02  0.201920D-01  0.146803D+00
     15  0.255239D-01 -0.336723D-01  0.127556D-02 -0.120290D-01  0.755430D-01
     16  0.209651D-02 -0.272573D-02 -0.284109D-01 -0.750084D-02 -0.179706D-02
     17  0.441676D-02  0.123656D-03  0.198085D-01 -0.410713D-01  0.168150D-01
     18 -0.178743D-02  0.384577D-02 -0.544766D-03  0.674694D-02 -0.178574D-01
     19  0.148635D-04  0.291988D-04 -0.234575D-03 -0.139626D-03  0.367773D-03
     20  0.971955D-04  0.308427D-05  0.385448D-02  0.292570D-02 -0.413474D-02
     21 -0.457424D-05  0.953011D-04 -0.291921D-02 -0.208812D-02  0.351734D-02
               16            17            18            19            20 
     16  0.104461D+00
     17 -0.730081D-02  0.719900D-01
     18 -0.475998D-02  0.299324D-02  0.640518D-01
     19 -0.327099D-01  0.325301D-02  0.530310D-02  0.341817D-01
     20  0.271636D-02 -0.143301D-01 -0.332609D-03 -0.437903D-02  0.891657D-02
     21  0.134733D-01 -0.189868D-02 -0.194147D-01 -0.766019D-02  0.116278D-02
               21 
     21  0.111223D-01
 Leave Link  716 at Mon Nov 13 16:32:27 2023, MaxMem=  1879048192 cpu:               0.5 elap:               0.0
 (Enter /home/sekinelabo/g16/l103.exe)

 GradGradGradGradGradGradGradGradGradGradGradGradGradGradGradGradGradGrad
 Berny optimization.
 Search for a local minimum.
 Step number   1 out of a maximum of    2
 All quantities printed in internal units (Hartrees-Bohrs-Radians)
 Second derivative matrix not updated -- first step.
 ITU=  0
     Eigenvalues ---    0.01630   0.01977   0.02937   0.06587   0.08064
     Eigenvalues ---    0.10385   0.11828   0.14009   0.14984   0.16498
     Eigenvalues ---    0.18716   0.19836   0.20697   0.22046   0.25395
 Quadratic step=4.105D-01 exceeds max=3.000D-01 adjusted using Lamda=-1.969D-02.
 Angle between NR and scaled steps=  11.05 degrees.
 Angle between quadratic step and forces=  28.04 degrees.
 Linear search not attempted -- first point.
 B after Tr=     0.000000    0.000000    0.000000
         Rot=    1.000000   -0.000000   -0.000000    0.000000 Ang=   0.00 deg.
 Variable       Old X    -DE/DX   Delta X   Delta X   Delta X     New X
                                 (Linear)    (Quad)   (Total)
    X1        5.45612   0.00555   0.00000   0.01615   0.01615   5.47227
    Y1        1.23060  -0.01255   0.00000  -0.03670  -0.03670   1.19391
    Z1        1.44506  -0.00495   0.00000  -0.01539  -0.01539   1.42967
    X2        1.42918  -0.00955   0.00000  -0.08748  -0.08748   1.34170
    Y2        4.93824   0.00891   0.00000   0.04277   0.04277   4.98101
    Z2        0.00000  -0.01485   0.00000  -0.07777  -0.07777  -0.07777
    X3        0.00000  -0.01222   0.00000  -0.11591  -0.11591  -0.11591
    Y3        0.00000  -0.01434   0.00000  -0.11003  -0.11003  -0.11003
    Z3        2.39507  -0.00004   0.00000  -0.00802  -0.00802   2.38705
    X4        2.57408   0.00063   0.00000  -0.03097  -0.03097   2.54311
    Y4        4.00983   0.00168   0.00000   0.00638   0.00638   4.01621
    Z4        5.46416   0.01700   0.00000   0.07941   0.07941   5.54356
    X5        6.32014   0.00688   0.00000   0.02553   0.02553   6.34567
    Y5        6.76780   0.01882   0.00000   0.12301   0.12301   6.89081
    Z5        2.21691  -0.00184   0.00000  -0.00662  -0.00662   2.21029
    X6       10.44457   0.00597   0.00000   0.09525   0.09525  10.53982
    Y6        3.06527  -0.00098   0.00000   0.02110   0.02110   3.08637
    Z6        3.44191   0.00653   0.00000   0.05168   0.05168   3.49358
    X7       15.80228   0.00274   0.00000   0.09743   0.09743  15.89971
    Y7        2.17006  -0.00154   0.00000  -0.04653  -0.04653   2.12353
    Z7        1.82936  -0.00184   0.00000  -0.02329  -0.02329   1.80607
         Item               Value     Threshold  Converged?
 Maximum Force            0.018823     0.000450     NO 
 RMS     Force            0.009125     0.000300     NO 
 Maximum Displacement     0.123007     0.001800     NO 
 RMS     Displacement     0.065647     0.001200     NO 
 Predicted change in Energy=-6.442716D-03
 GradGradGradGradGradGradGradGradGradGradGradGradGradGradGradGradGradGrad

 Leave Link  103 at Mon Nov 13 16:32:27 2023, MaxMem=  1879048192 cpu:               0.2 elap:               0.0
 (Enter /home/sekinelabo/g16/l9999.exe)
 1\1\GINC-SEKINELABO-XA7R-R37\Force\UB3LYP\6-311+G(d)\Na7(2)\SEKINELABO
 \13-Nov-2023\0\\#P B3LYP/6-311+g(d) force\\Gaussian input prepared by 
 ASE\\0,2\Na,2.8872544867,0.6512069312,0.7646906151\Na,0.7562882056,2.6
 132037208,0.\Na,0.,0.,1.2674166177\Na,1.3621450263,2.12191184,2.891507
 3338\Na,3.3444761121,3.581367674,1.1731366731\Na,5.5270303846,1.622073
 5191,1.8213777566\Na,8.3622072048,1.1483470027,0.9680536732\\Version=E
 S64L-G16RevB.01\State=2-A\HF=-1136.0848789\S2=0.774953\S2-1=0.\S2A=0.7
 50259\RMSD=6.863e-09\RMSF=9.125e-03\Dipole=-0.1452612,0.1821966,0.1351
 866\Quadrupole=6.7363541,-3.2399121,-3.496442,-0.9394966,-2.9846054,2.
 1409542\PG=C01 [X(Na7)]\\@


 BLESSED ARE THOSE WHO NOUGHT EXPECT,
 FOR THEY SHALL NOT BE DISAPPOINTED..  WALCOT - ODE TO PITT
 Job cpu time:       0 days  0 hours  5 minutes 18.1 seconds.
 Elapsed time:       0 days  0 hours  0 minutes 26.6 seconds.
 File lengths (MBytes):  RWF=     32 Int=      0 D2E=      0 Chk=      5 Scr=      1
 Normal termination of Gaussian 16 at Mon Nov 13 16:32:27 2023.
