 Entering Gaussian System, Link 0=g16
 Initial command:
 /home/sekinelabo/g16/l1.exe "/home/sekinelabo/g16temp/Gau-5970.inp" -scrdir="/home/sekinelabo/g16temp/"
 Entering Link 1 = /home/sekinelabo/g16/l1.exe PID=      5972.
  
 Copyright (c) 1988-2017, Gaussian, Inc.  All Rights Reserved.
  
 This is part of the Gaussian(R) 16 program.  It is based on
 the Gaussian(R) 09 system (copyright 2009, Gaussian, Inc.),
 the Gaussian(R) 03 system (copyright 2003, Gaussian, Inc.),
 the Gaussian(R) 98 system (copyright 1998, Gaussian, Inc.),
 the Gaussian(R) 94 system (copyright 1995, Gaussian, Inc.),
 the Gaussian 92(TM) system (copyright 1992, Gaussian, Inc.),
 the Gaussian 90(TM) system (copyright 1990, Gaussian, Inc.),
 the Gaussian 88(TM) system (copyright 1988, Gaussian, Inc.),
 the Gaussian 86(TM) system (copyright 1986, Carnegie Mellon
 University), and the Gaussian 82(TM) system (copyright 1983,
 Carnegie Mellon University). Gaussian is a federally registered
 trademark of Gaussian, Inc.
  
 This software contains proprietary and confidential information,
 including trade secrets, belonging to Gaussian, Inc.
  
 This software is provided under written license and may be
 used, copied, transmitted, or stored only in accord with that
 written license.
  
 The following legend is applicable only to US Government
 contracts under FAR:
  
                    RESTRICTED RIGHTS LEGEND
  
 Use, reproduction and disclosure by the US Government is
 subject to restrictions as set forth in subparagraphs (a)
 and (c) of the Commercial Computer Software - Restricted
 Rights clause in FAR 52.227-19.
  
 Gaussian, Inc.
 340 Quinnipiac St., Bldg. 40, Wallingford CT 06492
  
  
 ---------------------------------------------------------------
 Warning -- This program may not be used in any manner that
 competes with the business of Gaussian, Inc. or will provide
 assistance to any competitor of Gaussian, Inc.  The licensee
 of this program is prohibited from giving any competitor of
 Gaussian, Inc. access to this program.  By using this program,
 the user acknowledges that Gaussian, Inc. is engaged in the
 business of creating and licensing software in the field of
 computational chemistry and represents and warrants to the
 licensee that it is not a competitor of Gaussian, Inc. and that
 it will not use this program in any manner prohibited above.
 ---------------------------------------------------------------
  

 Cite this work as:
 Gaussian 16, Revision B.01,
 M. J. Frisch, G. W. Trucks, H. B. Schlegel, G. E. Scuseria, 
 M. A. Robb, J. R. Cheeseman, G. Scalmani, V. Barone, 
 G. A. Petersson, H. Nakatsuji, X. Li, M. Caricato, A. V. Marenich, 
 J. Bloino, B. G. Janesko, R. Gomperts, B. Mennucci, H. P. Hratchian, 
 J. V. Ortiz, A. F. Izmaylov, J. L. Sonnenberg, D. Williams-Young, 
 F. Ding, F. Lipparini, F. Egidi, J. Goings, B. Peng, A. Petrone, 
 T. Henderson, D. Ranasinghe, V. G. Zakrzewski, J. Gao, N. Rega, 
 G. Zheng, W. Liang, M. Hada, M. Ehara, K. Toyota, R. Fukuda, 
 J. Hasegawa, M. Ishida, T. Nakajima, Y. Honda, O. Kitao, H. Nakai, 
 T. Vreven, K. Throssell, J. A. Montgomery, Jr., J. E. Peralta, 
 F. Ogliaro, M. J. Bearpark, J. J. Heyd, E. N. Brothers, K. N. Kudin, 
 V. N. Staroverov, T. A. Keith, R. Kobayashi, J. Normand, 
 K. Raghavachari, A. P. Rendell, J. C. Burant, S. S. Iyengar, 
 J. Tomasi, M. Cossi, J. M. Millam, M. Klene, C. Adamo, R. Cammi, 
 J. W. Ochterski, R. L. Martin, K. Morokuma, O. Farkas, 
 J. B. Foresman, and D. J. Fox, Gaussian, Inc., Wallingford CT, 2016.
 
 ******************************************
 Gaussian 16:  ES64L-G16RevB.01 20-Dec-2017
                13-Nov-2023 
 ******************************************
 %mem=14GB
 %chk=checkpoint.chk
 %nprocshared=16
 Will use up to   16 processors via shared memory.
 -------------------------
 #P B3LYP/6-311+g(d) force
 -------------------------
 1/10=7,30=1,38=1/1,3;
 2/12=2,17=6,18=5,40=1/2;
 3/5=4,6=6,7=11,11=2,25=1,30=1,71=1,74=-5/1,2,3;
 4//1;
 5/5=2,38=5/2;
 6/7=2,8=2,9=2,10=2,28=1/1;
 7/29=1/1,2,3,16;
 1/10=7,30=1/3;
 99//99;
 Leave Link    1 at Mon Nov 13 20:50:00 2023, MaxMem=  1879048192 cpu:               0.3 elap:               0.0
 (Enter /home/sekinelabo/g16/l101.exe)
 ------------------------------
 Gaussian input prepared by ASE
 ------------------------------
 Symbolic Z-matrix:
 Charge =  0 Multiplicity = 2
 Na                    0.933     3.61142   1.77655 
 Na                    3.37886   3.60894   1.77625 
 Na                    0.        1.33548   1.61748 
 Na                    2.1532    2.08065   0. 
 Na                    2.15342   1.95309   3.39986 
 Na                    2.14662   0.        1.77031 
 Na                    4.30003   1.32475   1.61723 
 
 ITRead=  0  0  0  0  0  0  0
 MicOpt= -1 -1 -1 -1 -1 -1 -1
 NAtoms=      7 NQM=        7 NQMF=       0 NMMI=      0 NMMIF=      0
                NMic=       0 NMicF=      0.
                    Isotopes and Nuclear Properties:
 (Nuclear quadrupole moments (NQMom) in fm**2, nuclear magnetic moments (NMagM)
  in nuclear magnetons)

  Atom         1           2           3           4           5           6           7
 IAtWgt=          23          23          23          23          23          23          23
 AtmWgt=  22.9897697  22.9897697  22.9897697  22.9897697  22.9897697  22.9897697  22.9897697
 NucSpn=           3           3           3           3           3           3           3
 AtZEff=  -0.0000000  -0.0000000  -0.0000000  -0.0000000  -0.0000000  -0.0000000  -0.0000000
 NQMom=   10.4000000  10.4000000  10.4000000  10.4000000  10.4000000  10.4000000  10.4000000
 NMagM=    2.2175200   2.2175200   2.2175200   2.2175200   2.2175200   2.2175200   2.2175200
 AtZNuc=  11.0000000  11.0000000  11.0000000  11.0000000  11.0000000  11.0000000  11.0000000
 Leave Link  101 at Mon Nov 13 20:50:01 2023, MaxMem=  1879048192 cpu:               2.6 elap:               0.2
 (Enter /home/sekinelabo/g16/l103.exe)

 GradGradGradGradGradGradGradGradGradGradGradGradGradGradGradGradGradGrad
 Berny optimization.
 Initialization pass.
 Trust Radius=3.00D-01 FncErr=1.00D-07 GrdErr=1.00D-07 EigMax=2.50D+02 EigMin=1.00D-04
 Number of steps in this run=      2 maximum allowed number of steps=      2.
 GradGradGradGradGradGradGradGradGradGradGradGradGradGradGradGradGradGrad

 Leave Link  103 at Mon Nov 13 20:50:01 2023, MaxMem=  1879048192 cpu:               0.2 elap:               0.0
 (Enter /home/sekinelabo/g16/l202.exe)
                          Input orientation:                          
 ---------------------------------------------------------------------
 Center     Atomic      Atomic             Coordinates (Angstroms)
 Number     Number       Type             X           Y           Z
 ---------------------------------------------------------------------
      1         11           0        0.932998    3.611423    1.776554
      2         11           0        3.378861    3.608937    1.776254
      3         11           0        0.000000    1.335480    1.617484
      4         11           0        2.153197    2.080655    0.000000
      5         11           0        2.153416    1.953092    3.399860
      6         11           0        2.146624    0.000000    1.770314
      7         11           0        4.300031    1.324749    1.617230
 ---------------------------------------------------------------------
                    Distance matrix (angstroms):
                    1          2          3          4          5
     1  Na   0.000000
     2  Na   2.445864   0.000000
     3  Na   2.464895   4.075601   0.000000
     4  Na   2.643536   2.644424   2.794244   0.000000
     5  Na   2.621946   2.622906   2.862780   3.402252   0.000000
     6  Na   3.809895   3.813512   2.532757   2.731882   2.543626
     7  Na   4.073226   2.468067   4.300045   2.792082   2.860164
                    6          7
     6  Na   0.000000
     7  Na   2.532895   0.000000
 Stoichiometry    Na7(2)
 Framework group  C1[X(Na7)]
 Deg. of freedom    15
 Full point group                 C1      NOp   1
 Largest Abelian subgroup         C1      NOp   1
 Largest concise Abelian subgroup C1      NOp   1
                         Standard orientation:                         
 ---------------------------------------------------------------------
 Center     Atomic      Atomic             Coordinates (Angstroms)
 Number     Number       Type             X           Y           Z
 ---------------------------------------------------------------------
      1         11           0        1.219163    1.623661   -0.068312
      2         11           0       -1.226700    1.621175   -0.068011
      3         11           0        2.152161   -0.652282    0.090758
      4         11           0       -0.001036    0.092893    1.708242
      5         11           0       -0.001255   -0.034670   -1.691617
      6         11           0        0.005537   -1.987762   -0.062072
      7         11           0       -2.147870   -0.663013    0.091012
 ---------------------------------------------------------------------
 Rotational constants (GHZ):           1.3825737           1.2181758           0.9845873
 Leave Link  202 at Mon Nov 13 20:50:01 2023, MaxMem=  1879048192 cpu:               0.0 elap:               0.0
 (Enter /home/sekinelabo/g16/l301.exe)
 Standard basis: 6-311+G(d) (5D, 7F)
 Ernie: Thresh=  0.10000D-02 Tol=  0.10000D-05 Strict=F.
 There are   217 symmetry adapted cartesian basis functions of A   symmetry.
 There are   210 symmetry adapted basis functions of A   symmetry.
   210 basis functions,   350 primitive gaussians,   217 cartesian basis functions
    39 alpha electrons       38 beta electrons
       nuclear repulsion energy       463.8784917726 Hartrees.
 IExCor=  402 DFT=T Ex+Corr=B3LYP ExCW=0 ScaHFX=  0.200000
 ScaDFX=  0.800000  0.720000  1.000000  0.810000 ScalE2=  1.000000  1.000000
 IRadAn=      5 IRanWt=     -1 IRanGd=            0 ICorTp=0 IEmpDi=  4
 NAtoms=    7 NActive=    7 NUniq=    7 SFac= 1.00D+00 NAtFMM=   60 NAOKFM=F Big=F
 Integral buffers will be    131072 words long.
 Raffenetti 2 integral format.
 Two-electron integral symmetry is turned on.
 Leave Link  301 at Mon Nov 13 20:50:01 2023, MaxMem=  1879048192 cpu:               0.5 elap:               0.0
 (Enter /home/sekinelabo/g16/l302.exe)
 NPDir=0 NMtPBC=     1 NCelOv=     1 NCel=       1 NClECP=     1 NCelD=      1
         NCelK=      1 NCelE2=     1 NClLst=     1 CellRange=     0.0.
 One-electron integrals computed using PRISM.
 One-electron integral symmetry used in STVInt
 NBasis=   210 RedAO= T EigKep=  1.47D-06  NBF=   210
 NBsUse=   209 1.00D-06 EigRej=  3.57D-07 NBFU=   209
 Precomputing XC quadrature grid using
 IXCGrd= 4 IRadAn=           5 IRanWt=          -1 IRanGd=           0 AccXCQ= 0.00D+00.
 Generated NRdTot=       0 NPtTot=           0 NUsed=           0 NTot=          32
 NSgBfM=   211   211   211   211   211 MxSgAt=     7 MxSgA2=     7.
 Leave Link  302 at Mon Nov 13 20:50:01 2023, MaxMem=  1879048192 cpu:               2.1 elap:               0.1
 (Enter /home/sekinelabo/g16/l303.exe)
 DipDrv:  MaxL=1.
 Leave Link  303 at Mon Nov 13 20:50:01 2023, MaxMem=  1879048192 cpu:               0.6 elap:               0.0
 (Enter /home/sekinelabo/g16/l401.exe)
 ExpMin= 7.60D-03 ExpMax= 3.62D+04 ExpMxC= 1.21D+03 IAcc=3 IRadAn=         5 AccDes= 0.00D+00
 Harris functional with IExCor=  402 and IRadAn=       5 diagonalized for initial guess.
 HarFok:  IExCor=  402 AccDes= 0.00D+00 IRadAn=         5 IDoV= 1 UseB2=F ITyADJ=14
 ICtDFT=  3500011 ScaDFX=  1.000000  1.000000  1.000000  1.000000
 FoFCou: FMM=F IPFlag=           0 FMFlag=      100000 FMFlg1=           0
         NFxFlg=           0 DoJE=T BraDBF=F KetDBF=T FulRan=T
         wScrn=  0.000000 ICntrl=       500 IOpCl=  0 I1Cent=   200000004 NGrid=           0
         NMat0=    1 NMatS0=      1 NMatT0=    0 NMatD0=    1 NMtDS0=    0 NMtDT0=    0
 Petite list used in FoFCou.
 Harris En= -1135.74992144968    
 JPrj=0 DoOrth=F DoCkMO=F.
 Initial guess <Sx>= 0.0000 <Sy>= 0.0000 <Sz>= 0.5000 <S**2>= 0.7500 S= 0.5000
 Leave Link  401 at Mon Nov 13 20:50:01 2023, MaxMem=  1879048192 cpu:               5.3 elap:               0.3
 (Enter /home/sekinelabo/g16/l502.exe)
 Keep R1 and R2 ints in memory in canonical form, NReq=507620388.
 FoFCou: FMM=F IPFlag=           0 FMFlag=           0 FMFlg1=           0
         NFxFlg=           0 DoJE=F BraDBF=F KetDBF=F FulRan=T
         wScrn=  0.000000 ICntrl=       600 IOpCl=  0 I1Cent=           0 NGrid=           0
         NMat0=    1 NMatS0=  22155 NMatT0=    0 NMatD0=    1 NMtDS0=    0 NMtDT0=    0
 Symmetry not used in FoFCou.
 Two-electron integral symmetry not used.
 UHF open shell SCF:
 Using DIIS extrapolation, IDIIS=  1040.
 NGot=  1879048192 LenX=  1388082348 LenY=  1388034818
 Requested convergence on RMS density matrix=1.00D-08 within 128 cycles.
 Requested convergence on MAX density matrix=1.00D-06.
 Requested convergence on             energy=1.00D-06.
 No special actions if energy rises.

 Cycle   1  Pass 1  IDiag  1:
 E= -1135.92882167582    
 DIIS: error= 1.78D-02 at cycle   1 NSaved=   1.
 NSaved= 1 IEnMin= 1 EnMin= -1135.92882167582     IErMin= 1 ErrMin= 1.78D-02
 ErrMax= 1.78D-02  0.00D+00 EMaxC= 1.00D-01 BMatC= 2.29D-01 BMatP= 2.29D-01
 IDIUse=3 WtCom= 8.22D-01 WtEn= 1.78D-01
 Coeff-Com:  0.100D+01
 Coeff-En:   0.100D+01
 Coeff:      0.100D+01
 Gap=     0.078 Goal=   None    Shift=    0.000
 Gap=     0.041 Goal=   None    Shift=    0.000
 GapD=    0.041 DampG=0.250 DampE=0.500 DampFc=0.2500 IDamp=-1.
 Damping current iteration by 2.50D-01
 RMSDP=1.04D-01 MaxDP=6.79D+00              OVMax= 2.55D-01

 Cycle   2  Pass 1  IDiag  1:
 E= -1135.94538480692     Delta-E=       -0.016563131103 Rises=F Damp=T
 DIIS: error= 9.80D-03 at cycle   2 NSaved=   2.
 NSaved= 2 IEnMin= 2 EnMin= -1135.94538480692     IErMin= 2 ErrMin= 9.80D-03
 ErrMax= 9.80D-03  0.00D+00 EMaxC= 1.00D-01 BMatC= 8.63D-02 BMatP= 2.29D-01
 IDIUse=3 WtCom= 9.02D-01 WtEn= 9.80D-02
 Coeff-Com: -0.129D+01 0.229D+01
 Coeff-En:   0.000D+00 0.100D+01
 Coeff:     -0.116D+01 0.216D+01
 Gap=     0.085 Goal=   None    Shift=    0.000
 Gap=     0.040 Goal=   None    Shift=    0.000
 RMSDP=4.47D-02 MaxDP=3.01D+00 DE=-1.66D-02 OVMax= 1.64D-01

 Cycle   3  Pass 1  IDiag  1:
 E= -1135.97380301969     Delta-E=       -0.028418212767 Rises=F Damp=F
 DIIS: error= 3.82D-03 at cycle   3 NSaved=   3.
 NSaved= 3 IEnMin= 3 EnMin= -1135.97380301969     IErMin= 3 ErrMin= 3.82D-03
 ErrMax= 3.82D-03  0.00D+00 EMaxC= 1.00D-01 BMatC= 4.05D-03 BMatP= 8.63D-02
 IDIUse=3 WtCom= 9.62D-01 WtEn= 3.82D-02
 Coeff-Com: -0.207D+00 0.402D+00 0.805D+00
 Coeff-En:   0.000D+00 0.000D+00 0.100D+01
 Coeff:     -0.199D+00 0.386D+00 0.813D+00
 Gap=     0.079 Goal=   None    Shift=    0.000
 Gap=     0.041 Goal=   None    Shift=    0.000
 RMSDP=1.69D-02 MaxDP=1.04D+00 DE=-2.84D-02 OVMax= 4.97D-02

 Cycle   4  Pass 1  IDiag  1:
 E= -1135.97406508064     Delta-E=       -0.000262060953 Rises=F Damp=F
 DIIS: error= 3.67D-03 at cycle   4 NSaved=   4.
 NSaved= 4 IEnMin= 4 EnMin= -1135.97406508064     IErMin= 4 ErrMin= 3.67D-03
 ErrMax= 3.67D-03  0.00D+00 EMaxC= 1.00D-01 BMatC= 2.99D-03 BMatP= 4.05D-03
 IDIUse=3 WtCom= 9.63D-01 WtEn= 3.67D-02
 Coeff-Com:  0.254D-01-0.328D-01 0.467D+00 0.540D+00
 Coeff-En:   0.000D+00 0.000D+00 0.463D+00 0.537D+00
 Coeff:      0.245D-01-0.316D-01 0.467D+00 0.540D+00
 Gap=     0.079 Goal=   None    Shift=    0.000
 Gap=     0.041 Goal=   None    Shift=    0.000
 RMSDP=6.12D-03 MaxDP=3.87D-01 DE=-2.62D-04 OVMax= 2.51D-02

 Cycle   5  Pass 1  IDiag  1:
 E= -1135.97550519726     Delta-E=       -0.001440116619 Rises=F Damp=F
 DIIS: error= 2.46D-04 at cycle   5 NSaved=   5.
 NSaved= 5 IEnMin= 5 EnMin= -1135.97550519726     IErMin= 5 ErrMin= 2.46D-04
 ErrMax= 2.46D-04  0.00D+00 EMaxC= 1.00D-01 BMatC= 1.56D-05 BMatP= 2.99D-03
 IDIUse=3 WtCom= 9.98D-01 WtEn= 2.46D-03
 Coeff-Com:  0.110D-01-0.144D-01 0.224D+00 0.256D+00 0.523D+00
 Coeff-En:   0.000D+00 0.000D+00 0.000D+00 0.000D+00 0.100D+01
 Coeff:      0.109D-01-0.144D-01 0.224D+00 0.255D+00 0.525D+00
 Gap=     0.079 Goal=   None    Shift=    0.000
 Gap=     0.041 Goal=   None    Shift=    0.000
 RMSDP=3.49D-04 MaxDP=3.14D-02 DE=-1.44D-03 OVMax= 5.45D-03

 Cycle   6  Pass 1  IDiag  1:
 E= -1135.97551477692     Delta-E=       -0.000009579661 Rises=F Damp=F
 DIIS: error= 1.47D-04 at cycle   6 NSaved=   6.
 NSaved= 6 IEnMin= 6 EnMin= -1135.97551477692     IErMin= 6 ErrMin= 1.47D-04
 ErrMax= 1.47D-04  0.00D+00 EMaxC= 1.00D-01 BMatC= 5.28D-06 BMatP= 1.56D-05
 IDIUse=3 WtCom= 9.99D-01 WtEn= 1.47D-03
 Coeff-Com: -0.362D-02 0.451D-02-0.347D-01-0.478D-01 0.365D+00 0.717D+00
 Coeff-En:   0.000D+00 0.000D+00 0.000D+00 0.000D+00 0.279D+00 0.721D+00
 Coeff:     -0.361D-02 0.450D-02-0.346D-01-0.478D-01 0.365D+00 0.717D+00
 Gap=     0.079 Goal=   None    Shift=    0.000
 Gap=     0.041 Goal=   None    Shift=    0.000
 RMSDP=3.08D-04 MaxDP=2.58D-02 DE=-9.58D-06 OVMax= 2.16D-03

 Cycle   7  Pass 1  IDiag  1:
 E= -1135.97552006821     Delta-E=       -0.000005291289 Rises=F Damp=F
 DIIS: error= 2.06D-05 at cycle   7 NSaved=   7.
 NSaved= 7 IEnMin= 7 EnMin= -1135.97552006821     IErMin= 7 ErrMin= 2.06D-05
 ErrMax= 2.06D-05  0.00D+00 EMaxC= 1.00D-01 BMatC= 6.43D-08 BMatP= 5.28D-06
 IDIUse=1 WtCom= 1.00D+00 WtEn= 0.00D+00
 Coeff-Com: -0.643D-04 0.527D-04-0.909D-02-0.861D-02-0.598D-01-0.667D-01
 Coeff-Com:  0.114D+01
 Coeff:     -0.643D-04 0.527D-04-0.909D-02-0.861D-02-0.598D-01-0.667D-01
 Coeff:      0.114D+01
 Gap=     0.079 Goal=   None    Shift=    0.000
 Gap=     0.041 Goal=   None    Shift=    0.000
 RMSDP=8.39D-05 MaxDP=6.31D-03 DE=-5.29D-06 OVMax= 1.10D-03

 Cycle   8  Pass 1  IDiag  1:
 E= -1135.97552024747     Delta-E=       -0.000000179265 Rises=F Damp=F
 DIIS: error= 9.45D-06 at cycle   8 NSaved=   8.
 NSaved= 8 IEnMin= 8 EnMin= -1135.97552024747     IErMin= 8 ErrMin= 9.45D-06
 ErrMax= 9.45D-06  0.00D+00 EMaxC= 1.00D-01 BMatC= 4.39D-08 BMatP= 6.43D-08
 IDIUse=1 WtCom= 1.00D+00 WtEn= 0.00D+00
 Coeff-Com:  0.317D-03-0.408D-03-0.235D-02-0.537D-03-0.699D-01-0.109D+00
 Coeff-Com:  0.618D+00 0.564D+00
 Coeff:      0.317D-03-0.408D-03-0.235D-02-0.537D-03-0.699D-01-0.109D+00
 Coeff:      0.618D+00 0.564D+00
 Gap=     0.079 Goal=   None    Shift=    0.000
 Gap=     0.041 Goal=   None    Shift=    0.000
 RMSDP=2.00D-05 MaxDP=1.61D-03 DE=-1.79D-07 OVMax= 5.03D-04

 Cycle   9  Pass 1  IDiag  1:
 E= -1135.97552029765     Delta-E=       -0.000000050172 Rises=F Damp=F
 DIIS: error= 6.21D-06 at cycle   9 NSaved=   9.
 NSaved= 9 IEnMin= 9 EnMin= -1135.97552029765     IErMin= 9 ErrMin= 6.21D-06
 ErrMax= 6.21D-06  0.00D+00 EMaxC= 1.00D-01 BMatC= 9.27D-09 BMatP= 4.39D-08
 IDIUse=1 WtCom= 1.00D+00 WtEn= 0.00D+00
 Coeff-Com:  0.179D-03-0.224D-03-0.334D-03 0.680D-03-0.315D-01-0.520D-01
 Coeff-Com:  0.204D+00 0.279D+00 0.601D+00
 Coeff:      0.179D-03-0.224D-03-0.334D-03 0.680D-03-0.315D-01-0.520D-01
 Coeff:      0.204D+00 0.279D+00 0.601D+00
 Gap=     0.079 Goal=   None    Shift=    0.000
 Gap=     0.041 Goal=   None    Shift=    0.000
 RMSDP=9.14D-06 MaxDP=6.20D-04 DE=-5.02D-08 OVMax= 3.77D-04

 Cycle  10  Pass 1  IDiag  1:
 E= -1135.97552032303     Delta-E=       -0.000000025387 Rises=F Damp=F
 DIIS: error= 5.45D-06 at cycle  10 NSaved=  10.
 NSaved=10 IEnMin=10 EnMin= -1135.97552032303     IErMin=10 ErrMin= 5.45D-06
 ErrMax= 5.45D-06  0.00D+00 EMaxC= 1.00D-01 BMatC= 4.23D-09 BMatP= 9.27D-09
 IDIUse=1 WtCom= 1.00D+00 WtEn= 0.00D+00
 Coeff-Com: -0.641D-04 0.892D-04 0.151D-02 0.111D-02 0.209D-01 0.302D-01
 Coeff-Com: -0.244D+00-0.207D+00 0.344D+00 0.105D+01
 Coeff:     -0.641D-04 0.892D-04 0.151D-02 0.111D-02 0.209D-01 0.302D-01
 Coeff:     -0.244D+00-0.207D+00 0.344D+00 0.105D+01
 Gap=     0.079 Goal=   None    Shift=    0.000
 Gap=     0.041 Goal=   None    Shift=    0.000
 RMSDP=1.40D-05 MaxDP=1.04D-03 DE=-2.54D-08 OVMax= 7.20D-04

 Cycle  11  Pass 1  IDiag  1:
 E= -1135.97552035561     Delta-E=       -0.000000032578 Rises=F Damp=F
 DIIS: error= 3.42D-06 at cycle  11 NSaved=  11.
 NSaved=11 IEnMin=11 EnMin= -1135.97552035561     IErMin=11 ErrMin= 3.42D-06
 ErrMax= 3.42D-06  0.00D+00 EMaxC= 1.00D-01 BMatC= 1.18D-09 BMatP= 4.23D-09
 IDIUse=1 WtCom= 1.00D+00 WtEn= 0.00D+00
 Coeff-Com: -0.652D-04 0.765D-04-0.220D-03-0.680D-03 0.722D-02 0.122D-01
 Coeff-Com: -0.124D-01 0.129D-01-0.459D+00-0.613D+00 0.205D+01
 Coeff:     -0.652D-04 0.765D-04-0.220D-03-0.680D-03 0.722D-02 0.122D-01
 Coeff:     -0.124D-01 0.129D-01-0.459D+00-0.613D+00 0.205D+01
 Gap=     0.079 Goal=   None    Shift=    0.000
 Gap=     0.041 Goal=   None    Shift=    0.000
 RMSDP=1.70D-05 MaxDP=1.30D-03 DE=-3.26D-08 OVMax= 9.85D-04

 Cycle  12  Pass 1  IDiag  1:
 E= -1135.97552037655     Delta-E=       -0.000000020943 Rises=F Damp=F
 DIIS: error= 1.01D-06 at cycle  12 NSaved=  12.
 NSaved=12 IEnMin=12 EnMin= -1135.97552037655     IErMin=12 ErrMin= 1.01D-06
 ErrMax= 1.01D-06  0.00D+00 EMaxC= 1.00D-01 BMatC= 1.30D-10 BMatP= 1.18D-09
 IDIUse=1 WtCom= 1.00D+00 WtEn= 0.00D+00
 Coeff-Com:  0.461D-04-0.601D-04-0.154D-03 0.404D-04-0.551D-02-0.830D-02
 Coeff-Com:  0.494D-01 0.108D-01 0.261D-01 0.166D-01-0.520D+00 0.143D+01
 Coeff:      0.461D-04-0.601D-04-0.154D-03 0.404D-04-0.551D-02-0.830D-02
 Coeff:      0.494D-01 0.108D-01 0.261D-01 0.166D-01-0.520D+00 0.143D+01
 Gap=     0.079 Goal=   None    Shift=    0.000
 Gap=     0.041 Goal=   None    Shift=    0.000
 RMSDP=5.90D-06 MaxDP=4.68D-04 DE=-2.09D-08 OVMax= 3.02D-04

 Cycle  13  Pass 1  IDiag  1:
 E= -1135.97552037808     Delta-E=       -0.000000001530 Rises=F Damp=F
 DIIS: error= 3.60D-07 at cycle  13 NSaved=  13.
 NSaved=13 IEnMin=13 EnMin= -1135.97552037808     IErMin=13 ErrMin= 3.60D-07
 ErrMax= 3.60D-07  0.00D+00 EMaxC= 1.00D-01 BMatC= 4.54D-11 BMatP= 1.30D-10
 IDIUse=1 WtCom= 1.00D+00 WtEn= 0.00D+00
 Coeff-Com:  0.280D-04-0.355D-04-0.758D-04 0.753D-04-0.357D-02-0.556D-02
 Coeff-Com:  0.273D-01 0.615D-02 0.594D-01 0.680D-01-0.454D+00 0.707D+00
 Coeff-Com:  0.595D+00
 Coeff:      0.280D-04-0.355D-04-0.758D-04 0.753D-04-0.357D-02-0.556D-02
 Coeff:      0.273D-01 0.615D-02 0.594D-01 0.680D-01-0.454D+00 0.707D+00
 Coeff:      0.595D+00
 Gap=     0.079 Goal=   None    Shift=    0.000
 Gap=     0.041 Goal=   None    Shift=    0.000
 RMSDP=7.87D-07 MaxDP=5.66D-05 DE=-1.53D-09 OVMax= 2.32D-05

 Cycle  14  Pass 1  IDiag  1:
 E= -1135.97552037815     Delta-E=       -0.000000000062 Rises=F Damp=F
 DIIS: error= 2.52D-07 at cycle  14 NSaved=  14.
 NSaved=14 IEnMin=14 EnMin= -1135.97552037815     IErMin=14 ErrMin= 2.52D-07
 ErrMax= 2.52D-07  0.00D+00 EMaxC= 1.00D-01 BMatC= 2.10D-11 BMatP= 4.54D-11
 IDIUse=1 WtCom= 1.00D+00 WtEn= 0.00D+00
 Coeff-Com: -0.617D-05 0.883D-05 0.948D-05 0.175D-04 0.295D-03 0.310D-03
 Coeff-Com: -0.546D-02 0.123D-02 0.264D-01 0.323D-01-0.328D-01-0.251D+00
 Coeff-Com:  0.453D+00 0.776D+00
 Coeff:     -0.617D-05 0.883D-05 0.948D-05 0.175D-04 0.295D-03 0.310D-03
 Coeff:     -0.546D-02 0.123D-02 0.264D-01 0.323D-01-0.328D-01-0.251D+00
 Coeff:      0.453D+00 0.776D+00
 Gap=     0.079 Goal=   None    Shift=    0.000
 Gap=     0.041 Goal=   None    Shift=    0.000
 RMSDP=7.00D-07 MaxDP=5.92D-05 DE=-6.18D-11 OVMax= 9.75D-06

 Cycle  15  Pass 1  IDiag  1:
 E= -1135.97552037818     Delta-E=       -0.000000000033 Rises=F Damp=F
 DIIS: error= 6.55D-08 at cycle  15 NSaved=  15.
 NSaved=15 IEnMin=15 EnMin= -1135.97552037818     IErMin=15 ErrMin= 6.55D-08
 ErrMax= 6.55D-08  0.00D+00 EMaxC= 1.00D-01 BMatC= 9.50D-13 BMatP= 2.10D-11
 IDIUse=1 WtCom= 1.00D+00 WtEn= 0.00D+00
 Coeff-Com: -0.268D-05 0.342D-05 0.134D-04-0.399D-05 0.340D-03 0.559D-03
 Coeff-Com: -0.301D-02-0.308D-03-0.613D-02-0.820D-02 0.394D-01-0.941D-01
 Coeff-Com: -0.259D-01 0.467D-01 0.105D+01
 Coeff:     -0.268D-05 0.342D-05 0.134D-04-0.399D-05 0.340D-03 0.559D-03
 Coeff:     -0.301D-02-0.308D-03-0.613D-02-0.820D-02 0.394D-01-0.941D-01
 Coeff:     -0.259D-01 0.467D-01 0.105D+01
 Gap=     0.079 Goal=   None    Shift=    0.000
 Gap=     0.041 Goal=   None    Shift=    0.000
 RMSDP=4.91D-07 MaxDP=3.06D-05 DE=-3.32D-11 OVMax= 1.84D-05

 Cycle  16  Pass 1  IDiag  1:
 E= -1135.97552037821     Delta-E=       -0.000000000026 Rises=F Damp=F
 DIIS: error= 3.11D-08 at cycle  16 NSaved=  16.
 NSaved=16 IEnMin=16 EnMin= -1135.97552037821     IErMin=16 ErrMin= 3.11D-08
 ErrMax= 3.11D-08  0.00D+00 EMaxC= 1.00D-01 BMatC= 1.68D-13 BMatP= 9.50D-13
 IDIUse=1 WtCom= 1.00D+00 WtEn= 0.00D+00
 Coeff-Com:  0.121D-05-0.179D-05 0.123D-05-0.354D-05-0.149D-04-0.174D-04
 Coeff-Com:  0.955D-03-0.417D-03-0.687D-02-0.788D-02 0.187D-01 0.430D-01
 Coeff-Com: -0.987D-01-0.162D+00 0.582D-01 0.115D+01
 Coeff:      0.121D-05-0.179D-05 0.123D-05-0.354D-05-0.149D-04-0.174D-04
 Coeff:      0.955D-03-0.417D-03-0.687D-02-0.788D-02 0.187D-01 0.430D-01
 Coeff:     -0.987D-01-0.162D+00 0.582D-01 0.115D+01
 Gap=     0.079 Goal=   None    Shift=    0.000
 Gap=     0.041 Goal=   None    Shift=    0.000
 RMSDP=1.94D-07 MaxDP=1.78D-05 DE=-2.57D-11 OVMax= 2.97D-06

 Cycle  17  Pass 1  IDiag  1:
 E= -1135.97552037819     Delta-E=        0.000000000011 Rises=F Damp=F
 DIIS: error= 1.26D-08 at cycle  17 NSaved=  17.
 NSaved=17 IEnMin=16 EnMin= -1135.97552037821     IErMin=17 ErrMin= 1.26D-08
 ErrMax= 1.26D-08  0.00D+00 EMaxC= 1.00D-01 BMatC= 3.12D-14 BMatP= 1.68D-13
 IDIUse=1 WtCom= 1.00D+00 WtEn= 0.00D+00
 Coeff-Com:  0.454D-06-0.594D-06-0.345D-05-0.454D-06-0.573D-04-0.743D-04
 Coeff-Com:  0.570D-03-0.754D-04 0.300D-03 0.117D-02-0.496D-02 0.213D-01
 Coeff-Com: -0.595D-02-0.258D-01-0.182D+00 0.166D+00 0.103D+01
 Coeff:      0.454D-06-0.594D-06-0.345D-05-0.454D-06-0.573D-04-0.743D-04
 Coeff:      0.570D-03-0.754D-04 0.300D-03 0.117D-02-0.496D-02 0.213D-01
 Coeff:     -0.595D-02-0.258D-01-0.182D+00 0.166D+00 0.103D+01
 Gap=     0.079 Goal=   None    Shift=    0.000
 Gap=     0.041 Goal=   None    Shift=    0.000
 RMSDP=7.17D-08 MaxDP=6.66D-06 DE= 1.07D-11 OVMax= 1.04D-06

 Cycle  18  Pass 1  IDiag  1:
 E= -1135.97552037820     Delta-E=       -0.000000000006 Rises=F Damp=F
 DIIS: error= 4.84D-09 at cycle  18 NSaved=  18.
 NSaved=18 IEnMin=16 EnMin= -1135.97552037821     IErMin=18 ErrMin= 4.84D-09
 ErrMax= 4.84D-09  0.00D+00 EMaxC= 1.00D-01 BMatC= 6.63D-15 BMatP= 3.12D-14
 IDIUse=1 WtCom= 1.00D+00 WtEn= 0.00D+00
 Coeff-Com: -0.231D-06 0.347D-06-0.142D-05 0.451D-06-0.827D-05-0.194D-04
 Coeff-Com: -0.725D-04 0.148D-03 0.140D-02 0.135D-02-0.467D-02-0.619D-02
 Coeff-Com:  0.201D-01 0.302D-01-0.535D-01-0.215D+00 0.229D+00 0.998D+00
 Coeff:     -0.231D-06 0.347D-06-0.142D-05 0.451D-06-0.827D-05-0.194D-04
 Coeff:     -0.725D-04 0.148D-03 0.140D-02 0.135D-02-0.467D-02-0.619D-02
 Coeff:      0.201D-01 0.302D-01-0.535D-01-0.215D+00 0.229D+00 0.998D+00
 Gap=     0.079 Goal=   None    Shift=    0.000
 Gap=     0.041 Goal=   None    Shift=    0.000
 RMSDP=5.37D-08 MaxDP=4.06D-06 DE=-5.91D-12 OVMax= 1.12D-06

 Cycle  19  Pass 1  IDiag  1:
 E= -1135.97552037818     Delta-E=        0.000000000019 Rises=F Damp=F
 DIIS: error= 1.33D-09 at cycle  19 NSaved=  19.
 NSaved=19 IEnMin=16 EnMin= -1135.97552037821     IErMin=19 ErrMin= 1.33D-09
 ErrMax= 1.33D-09  0.00D+00 EMaxC= 1.00D-01 BMatC= 4.51D-16 BMatP= 6.63D-15
 IDIUse=1 WtCom= 1.00D+00 WtEn= 0.00D+00
 Large coefficients: NSaved= 19 BigCof=    0.00 CofMax=   10.00 Det=-8.33D-16
 Inversion failed.  Reducing to 18 matrices.
 Large coefficients: NSaved= 18 BigCof=    0.00 CofMax=   10.00 Det=-9.75D-16
 Inversion failed.  Reducing to 17 matrices.
 Large coefficients: NSaved= 17 BigCof=    0.00 CofMax=   10.00 Det=-1.01D-15
 Inversion failed.  Reducing to 16 matrices.
 Large coefficients: NSaved= 16 BigCof=    0.00 CofMax=   10.00 Det=-1.08D-15
 Inversion failed.  Reducing to 15 matrices.
 Coeff-Com: -0.338D-05-0.482D-05 0.448D-05 0.328D-04 0.165D-03 0.129D-03
 Coeff-Com: -0.427D-03-0.105D-02 0.198D-02 0.366D-02 0.869D-02-0.188D-01
 Coeff-Com: -0.772D-01 0.810D-02 0.107D+01
 Coeff:     -0.338D-05-0.482D-05 0.448D-05 0.328D-04 0.165D-03 0.129D-03
 Coeff:     -0.427D-03-0.105D-02 0.198D-02 0.366D-02 0.869D-02-0.188D-01
 Coeff:     -0.772D-01 0.810D-02 0.107D+01
 Gap=     0.079 Goal=   None    Shift=    0.000
 Gap=     0.041 Goal=   None    Shift=    0.000
 RMSDP=1.02D-08 MaxDP=7.43D-07 DE= 1.86D-11 OVMax= 1.63D-07

 Cycle  20  Pass 1  IDiag  1:
 E= -1135.97552037818     Delta-E=       -0.000000000003 Rises=F Damp=F
 DIIS: error= 6.63D-10 at cycle  20 NSaved=  16.
 NSaved=16 IEnMin=12 EnMin= -1135.97552037821     IErMin=16 ErrMin= 6.63D-10
 ErrMax= 6.63D-10  0.00D+00 EMaxC= 1.00D-01 BMatC= 8.07D-17 BMatP= 4.51D-16
 IDIUse=1 WtCom= 1.00D+00 WtEn= 0.00D+00
 Large coefficients: NSaved= 16 BigCof=    0.00 CofMax=   10.00 Det=-9.80D-17
 Inversion failed.  Reducing to 15 matrices.
 Coeff-Com:  0.628D-06 0.112D-04-0.125D-04-0.105D-03-0.859D-04 0.277D-03
 Coeff-Com:  0.621D-03-0.149D-02-0.244D-02 0.690D-03 0.189D-01 0.842D-02
 Coeff-Com: -0.918D-01-0.449D+00 0.152D+01
 Coeff:      0.628D-06 0.112D-04-0.125D-04-0.105D-03-0.859D-04 0.277D-03
 Coeff:      0.621D-03-0.149D-02-0.244D-02 0.690D-03 0.189D-01 0.842D-02
 Coeff:     -0.918D-01-0.449D+00 0.152D+01
 Gap=     0.079 Goal=   None    Shift=    0.000
 Gap=     0.041 Goal=   None    Shift=    0.000
 RMSDP=1.59D-08 MaxDP=1.40D-06 DE=-2.73D-12 OVMax= 5.42D-08

 Cycle  21  Pass 1  IDiag  1:
 E= -1135.97552037819     Delta-E=       -0.000000000009 Rises=F Damp=F
 DIIS: error= 2.40D-10 at cycle  21 NSaved=  16.
 NSaved=16 IEnMin=11 EnMin= -1135.97552037821     IErMin=16 ErrMin= 2.40D-10
 ErrMax= 2.40D-10  0.00D+00 EMaxC= 1.00D-01 BMatC= 1.59D-17 BMatP= 8.07D-17
 IDIUse=1 WtCom= 1.00D+00 WtEn= 0.00D+00
 Large coefficients: NSaved= 16 BigCof=    0.00 CofMax=   10.00 Det=-2.43D-17
 Inversion failed.  Reducing to 15 matrices.
 Coeff-Com:  0.846D-05-0.695D-05-0.691D-04-0.686D-04 0.186D-03 0.403D-03
 Coeff-Com: -0.917D-03-0.153D-02-0.344D-03 0.101D-01 0.111D-01-0.400D-01
 Coeff-Com: -0.277D+00 0.530D+00 0.769D+00
 Coeff:      0.846D-05-0.695D-05-0.691D-04-0.686D-04 0.186D-03 0.403D-03
 Coeff:     -0.917D-03-0.153D-02-0.344D-03 0.101D-01 0.111D-01-0.400D-01
 Coeff:     -0.277D+00 0.530D+00 0.769D+00
 Gap=     0.079 Goal=   None    Shift=    0.000
 Gap=     0.041 Goal=   None    Shift=    0.000
 RMSDP=7.53D-09 MaxDP=4.88D-07 DE=-9.09D-12 OVMax= 1.49D-08

 SCF Done:  E(UB3LYP) =  -1135.97552038     A.U. after   21 cycles
            NFock= 21  Conv=0.75D-08     -V/T= 2.0017
 <Sx>= 0.0000 <Sy>= 0.0000 <Sz>= 0.5000 <S**2>= 0.7573 S= 0.5036
 <L.S>= 0.000000000000E+00
 KE= 1.134061099923D+03 PE=-3.656316421767D+03 EE= 9.224013096933D+02
 Annihilation of the first spin contaminant:
 S**2 before annihilation     0.7573,   after     0.7500
 Leave Link  502 at Mon Nov 13 20:50:19 2023, MaxMem=  1879048192 cpu:             206.1 elap:              17.5
 (Enter /home/sekinelabo/g16/l601.exe)
 Copying SCF densities to generalized density rwf, IOpCl= 1 IROHF=0.

 **********************************************************************

            Population analysis using the SCF Density.

 **********************************************************************

 Orbital symmetries:
 Alpha Orbitals:
       Occupied  (A) (A) (A) (A) (A) (A) (A) (A) (A) (A) (A) (A)
                 (A) (A) (A) (A) (A) (A) (A) (A) (A) (A) (A) (A)
                 (A) (A) (A) (A) (A) (A) (A) (A) (A) (A) (A) (A)
                 (A) (A) (A)
       Virtual   (A) (A) (A) (A) (A) (A) (A) (A) (A) (A) (A) (A)
                 (A) (A) (A) (A) (A) (A) (A) (A) (A) (A) (A) (A)
                 (A) (A) (A) (A) (A) (A) (A) (A) (A) (A) (A) (A)
                 (A) (A) (A) (A) (A) (A) (A) (A) (A) (A) (A) (A)
                 (A) (A) (A) (A) (A) (A) (A) (A) (A) (A) (A) (A)
                 (A) (A) (A) (A) (A) (A) (A) (A) (A) (A) (A) (A)
                 (A) (A) (A) (A) (A) (A) (A) (A) (A) (A) (A) (A)
                 (A) (A) (A) (A) (A) (A) (A) (A) (A) (A) (A) (A)
                 (A) (A) (A) (A) (A) (A) (A) (A) (A) (A) (A) (A)
                 (A) (A) (A) (A) (A) (A) (A) (A) (A) (A) (A) (A)
                 (A) (A) (A) (A) (A) (A) (A) (A) (A) (A) (A) (A)
                 (A) (A) (A) (A) (A) (A) (A) (A) (A) (A) (A) (A)
                 (A) (A) (A) (A) (A) (A) (A) (A) (A) (A) (A) (A)
                 (A) (A) (A) (A) (A) (A) (A) (A) (A) (A) (A) (A)
                 (A) (A)
 Beta  Orbitals:
       Occupied  (A) (A) (A) (A) (A) (A) (A) (A) (A) (A) (A) (A)
                 (A) (A) (A) (A) (A) (A) (A) (A) (A) (A) (A) (A)
                 (A) (A) (A) (A) (A) (A) (A) (A) (A) (A) (A) (A)
                 (A) (A)
       Virtual   (A) (A) (A) (A) (A) (A) (A) (A) (A) (A) (A) (A)
                 (A) (A) (A) (A) (A) (A) (A) (A) (A) (A) (A) (A)
                 (A) (A) (A) (A) (A) (A) (A) (A) (A) (A) (A) (A)
                 (A) (A) (A) (A) (A) (A) (A) (A) (A) (A) (A) (A)
                 (A) (A) (A) (A) (A) (A) (A) (A) (A) (A) (A) (A)
                 (A) (A) (A) (A) (A) (A) (A) (A) (A) (A) (A) (A)
                 (A) (A) (A) (A) (A) (A) (A) (A) (A) (A) (A) (A)
                 (A) (A) (A) (A) (A) (A) (A) (A) (A) (A) (A) (A)
                 (A) (A) (A) (A) (A) (A) (A) (A) (A) (A) (A) (A)
                 (A) (A) (A) (A) (A) (A) (A) (A) (A) (A) (A) (A)
                 (A) (A) (A) (A) (A) (A) (A) (A) (A) (A) (A) (A)
                 (A) (A) (A) (A) (A) (A) (A) (A) (A) (A) (A) (A)
                 (A) (A) (A) (A) (A) (A) (A) (A) (A) (A) (A) (A)
                 (A) (A) (A) (A) (A) (A) (A) (A) (A) (A) (A) (A)
                 (A) (A) (A)
 The electronic state is 2-A.
 Alpha  occ. eigenvalues --  -38.45718 -38.45460 -38.45393 -38.45383 -38.45047
 Alpha  occ. eigenvalues --  -38.45040 -38.44920  -2.22270  -2.22016  -2.21877
 Alpha  occ. eigenvalues --   -2.21752  -2.21440  -2.21354  -2.21240  -1.16645
 Alpha  occ. eigenvalues --   -1.16354  -1.16187  -1.16177  -1.16080  -1.15902
 Alpha  occ. eigenvalues --   -1.15796  -1.15766  -1.15387  -1.15382  -1.15185
 Alpha  occ. eigenvalues --   -1.15183  -1.15151  -1.14991  -1.14875  -1.14839
 Alpha  occ. eigenvalues --   -1.14758  -1.14709  -1.14644  -1.14626  -1.14381
 Alpha  occ. eigenvalues --   -0.23540  -0.14239  -0.13549  -0.13374
 Alpha virt. eigenvalues --   -0.05429  -0.04049  -0.04026  -0.03985  -0.03643
 Alpha virt. eigenvalues --   -0.02909  -0.00674  -0.00323  -0.00141   0.00261
 Alpha virt. eigenvalues --    0.01087   0.01091   0.01182   0.01343   0.01380
 Alpha virt. eigenvalues --    0.01419   0.01478   0.01516   0.01560   0.01621
 Alpha virt. eigenvalues --    0.01785   0.01826   0.01909   0.01921   0.01987
 Alpha virt. eigenvalues --    0.02899   0.02958   0.03084   0.03106   0.03117
 Alpha virt. eigenvalues --    0.03142   0.03346   0.03460   0.03526   0.03543
 Alpha virt. eigenvalues --    0.03655   0.03730   0.03779   0.03813   0.03885
 Alpha virt. eigenvalues --    0.04996   0.05261   0.05369   0.05420   0.05468
 Alpha virt. eigenvalues --    0.05536   0.05560   0.05854   0.05871   0.06674
 Alpha virt. eigenvalues --    0.06704   0.07324   0.07360   0.08382   0.08611
 Alpha virt. eigenvalues --    0.09033   0.09205   0.09404   0.09552   0.10005
 Alpha virt. eigenvalues --    0.10018   0.11692   0.12034   0.12728   0.13192
 Alpha virt. eigenvalues --    0.13196   0.13675   0.14228   0.14724   0.14732
 Alpha virt. eigenvalues --    0.14795   0.15423   0.16688   0.17094   0.18023
 Alpha virt. eigenvalues --    0.18554   0.18875   0.19462   0.19633   0.23645
 Alpha virt. eigenvalues --    0.24796   0.25182   0.26306   0.26346   0.29965
 Alpha virt. eigenvalues --    0.31123   0.32478   0.33566   0.36735   0.36870
 Alpha virt. eigenvalues --    0.37387   0.38458   0.38464   0.39813   0.40281
 Alpha virt. eigenvalues --    0.42085   0.43428   0.43671   0.44814   0.45418
 Alpha virt. eigenvalues --    0.46374   0.46809   0.47500   0.47656   0.47959
 Alpha virt. eigenvalues --    0.48321   0.48692   0.48768   0.49641   0.50197
 Alpha virt. eigenvalues --    0.51078   0.53071   0.53433   0.54030   0.54430
 Alpha virt. eigenvalues --    0.54818   0.58338   0.59506   0.60908   0.61614
 Alpha virt. eigenvalues --    0.67874   0.71356   0.72396   0.74159   0.77803
 Alpha virt. eigenvalues --    0.80198   0.81024   0.82955   0.86517   0.87588
 Alpha virt. eigenvalues --    0.88580   0.92984   0.93946   0.94200   1.03566
 Alpha virt. eigenvalues --    2.13566   2.15235   2.30073   2.31349   2.31716
 Alpha virt. eigenvalues --    2.34305   2.34566   4.41127   4.42410   4.45456
 Alpha virt. eigenvalues --    4.46566   4.48026   4.50118   4.52199   4.53860
 Alpha virt. eigenvalues --    4.58776   4.59916   4.77311   4.77896   4.79445
 Alpha virt. eigenvalues --    4.83518   4.85190   4.87775   4.89751   4.93587
 Alpha virt. eigenvalues --    4.97412   5.04710   5.06753  96.41171  96.42960
 Alpha virt. eigenvalues --   96.58952  96.63032  96.63860  96.66806  96.67111
  Beta  occ. eigenvalues --  -38.45609 -38.45369 -38.45359 -38.45353 -38.45029
  Beta  occ. eigenvalues --  -38.45022 -38.44898  -2.22095  -2.21912  -2.21744
  Beta  occ. eigenvalues --   -2.21721  -2.21412  -2.21330  -2.21213  -1.16592
  Beta  occ. eigenvalues --   -1.16312  -1.16117  -1.16092  -1.15973  -1.15801
  Beta  occ. eigenvalues --   -1.15713  -1.15687  -1.15306  -1.15302  -1.15136
  Beta  occ. eigenvalues --   -1.15071  -1.15035  -1.14976  -1.14779  -1.14746
  Beta  occ. eigenvalues --   -1.14704  -1.14650  -1.14629  -1.14616  -1.14373
  Beta  occ. eigenvalues --   -0.22661  -0.13768  -0.13090
  Beta virt. eigenvalues --   -0.08967  -0.05462  -0.03966  -0.03961  -0.02958
  Beta virt. eigenvalues --   -0.02612  -0.01879  -0.00610  -0.00279   0.00007
  Beta virt. eigenvalues --    0.00280   0.01090   0.01103   0.01224   0.01419
  Beta virt. eigenvalues --    0.01430   0.01488   0.01498   0.01561   0.01596
  Beta virt. eigenvalues --    0.01783   0.01851   0.01880   0.01957   0.02018
  Beta virt. eigenvalues --    0.02034   0.02899   0.02947   0.03081   0.03110
  Beta virt. eigenvalues --    0.03164   0.03183   0.03349   0.03464   0.03648
  Beta virt. eigenvalues --    0.03684   0.03780   0.03804   0.03908   0.03954
  Beta virt. eigenvalues --    0.04134   0.05099   0.05362   0.05484   0.05541
  Beta virt. eigenvalues --    0.05566   0.05798   0.05842   0.06059   0.06140
  Beta virt. eigenvalues --    0.06654   0.06684   0.07419   0.07433   0.08381
  Beta virt. eigenvalues --    0.08613   0.09056   0.09322   0.09796   0.09846
  Beta virt. eigenvalues --    0.10349   0.10386   0.12044   0.12275   0.12773
  Beta virt. eigenvalues --    0.13220   0.13226   0.14016   0.14573   0.14768
  Beta virt. eigenvalues --    0.14786   0.15242   0.15913   0.16941   0.17357
  Beta virt. eigenvalues --    0.18196   0.18763   0.19178   0.19604   0.19773
  Beta virt. eigenvalues --    0.24238   0.25518   0.25782   0.26836   0.26955
  Beta virt. eigenvalues --    0.29988   0.31121   0.32469   0.33624   0.37001
  Beta virt. eigenvalues --    0.37221   0.37874   0.38907   0.38922   0.40270
  Beta virt. eigenvalues --    0.40709   0.42224   0.43756   0.44050   0.45029
  Beta virt. eigenvalues --    0.45680   0.46669   0.47134   0.47578   0.47661
  Beta virt. eigenvalues --    0.48189   0.48447   0.48940   0.48972   0.49847
  Beta virt. eigenvalues --    0.50489   0.51505   0.52984   0.53364   0.54488
  Beta virt. eigenvalues --    0.54812   0.55416   0.58883   0.59906   0.61444
  Beta virt. eigenvalues --    0.61991   0.67952   0.71789   0.72449   0.74719
  Beta virt. eigenvalues --    0.78036   0.80468   0.81051   0.83188   0.86554
  Beta virt. eigenvalues --    0.87934   0.88695   0.93079   0.94053   0.94509
  Beta virt. eigenvalues --    1.03565   2.13599   2.15285   2.30403   2.31551
  Beta virt. eigenvalues --    2.31727   2.34553   2.34690   4.41291   4.42582
  Beta virt. eigenvalues --    4.45571   4.46698   4.48105   4.50209   4.52211
  Beta virt. eigenvalues --    4.53874   4.58927   4.60080   4.77386   4.77973
  Beta virt. eigenvalues --    4.79525   4.83693   4.85217   4.87803   4.89830
  Beta virt. eigenvalues --    4.93747   4.97479   5.04733   5.06783  96.41189
  Beta virt. eigenvalues --   96.42984  96.59041  96.63047  96.63952  96.66851
  Beta virt. eigenvalues --   96.67219
          Condensed to atoms (all electrons):
               1          2          3          4          5          6
     1  Na  15.824934  -2.134844   0.388782   0.124340   0.136395  -1.150714
     2  Na  -2.134844  15.837648  -2.319499   0.120029   0.136258  -1.164526
     3  Na   0.388782  -2.319499  16.202174  -0.482863  -0.195776  -0.578203
     4  Na   0.124340   0.120029  -0.482863  11.547318  -0.000997   0.390183
     5  Na   0.136395   0.136258  -0.195776  -0.000997  11.473294  -0.030237
     6  Na  -1.150714  -1.164526  -0.578203   0.390183  -0.030237  13.712683
     7  Na  -2.315220   0.402356  -1.955327  -0.476316  -0.186159  -0.599289
               7
     1  Na  -2.315220
     2  Na   0.402356
     3  Na  -1.955327
     4  Na  -0.476316
     5  Na  -0.186159
     6  Na  -0.599289
     7  Na  16.185204
          Atomic-Atomic Spin Densities.
               1          2          3          4          5          6
     1  Na  -0.190427   0.096605  -0.097058   0.029699   0.019150   0.043074
     2  Na   0.096605  -0.187124   0.130691   0.029897   0.019377   0.041442
     3  Na  -0.097058   0.130691  -0.173829   0.059643   0.028174   0.040854
     4  Na   0.029699   0.029897   0.059643   0.352549  -0.075591  -0.012229
     5  Na   0.019150   0.019377   0.028174  -0.075591   0.346622   0.042021
     6  Na   0.043074   0.041442   0.040854  -0.012229   0.042021  -0.102448
     7  Na   0.131883  -0.099206   0.007433   0.058897   0.028303   0.039285
               7
     1  Na   0.131883
     2  Na  -0.099206
     3  Na   0.007433
     4  Na   0.058897
     5  Na   0.028303
     6  Na   0.039285
     7  Na  -0.170032
 Mulliken charges and spin densities:
               1          2
     1  Na   0.126327   0.032926
     2  Na   0.122578   0.031683
     3  Na  -0.059288  -0.004092
     4  Na  -0.221694   0.442865
     5  Na  -0.332777   0.408057
     6  Na   0.420104   0.091998
     7  Na  -0.055249  -0.003438
 Sum of Mulliken charges =  -0.00000   1.00000
 Mulliken charges and spin densities with hydrogens summed into heavy atoms:
               1          2
     1  Na   0.126327   0.032926
     2  Na   0.122578   0.031683
     3  Na  -0.059288  -0.004092
     4  Na  -0.221694   0.442865
     5  Na  -0.332777   0.408057
     6  Na   0.420104   0.091998
     7  Na  -0.055249  -0.003438
 Electronic spatial extent (au):  <R**2>=           1255.8420
 Charge=             -0.0000 electrons
 Dipole moment (field-independent basis, Debye):
    X=             -0.0008    Y=             -0.2224    Z=              0.0922  Tot=              0.2407
 Quadrupole moment (field-independent basis, Debye-Ang):
   XX=            -64.9565   YY=            -70.7073   ZZ=            -66.9023
   XY=             -0.0037   XZ=              0.0002   YZ=             -0.2671
 Traceless Quadrupole moment (field-independent basis, Debye-Ang):
   XX=              2.5655   YY=             -3.1853   ZZ=              0.6198
   XY=             -0.0037   XZ=              0.0002   YZ=             -0.2671
 Octapole moment (field-independent basis, Debye-Ang**2):
  XXX=              0.0326  YYY=             -1.9868  ZZZ=              1.2078  XYY=             -0.0295
  XXY=             -2.8215  XXZ=              1.7667  XZZ=             -0.0231  YZZ=             -0.4730
  YYZ=             -0.8947  XYZ=              0.0057
 Hexadecapole moment (field-independent basis, Debye-Ang**3):
 XXXX=           -879.1707 YYYY=           -860.2480 ZZZZ=           -526.7209 XXXY=              0.0361
 XXXZ=              0.0206 YYYX=             -0.1223 YYYZ=             -2.3910 ZZZX=              0.0063
 ZZZY=              1.5377 XXYY=           -293.4727 XXZZ=           -276.2581 YYZZ=           -263.3228
 XXYZ=             -4.5156 YYXZ=             -0.0206 ZZXY=             -0.0079
 N-N= 4.638784917726D+02 E-N=-3.656316421767D+03  KE= 1.134061099923D+03
                          Isotropic Fermi Contact Couplings
        Atom                 a.u.       MegaHertz       Gauss      10(-4) cm-1
     1  Na(23)            -0.01873     -22.16247      -7.90812      -7.39260
     2  Na(23)            -0.01875     -22.17814      -7.91371      -7.39783
     3  Na(23)            -0.01990     -23.54420      -8.40116      -7.85350
     4  Na(23)             0.44169     522.53102     186.45206     174.29759
     5  Na(23)             0.44589     527.50262     188.22605     175.95594
     6  Na(23)            -0.01804     -21.33988      -7.61460      -7.11822
     7  Na(23)            -0.01982     -23.44253      -8.36488      -7.81958
 --------------------------------------------------------
       Center         ----  Spin Dipole Couplings  ----
                      3XX-RR        3YY-RR        3ZZ-RR
 --------------------------------------------------------
     1   Atom       -0.048664     -0.048601      0.097265
     2   Atom       -0.048514     -0.048504      0.097018
     3   Atom       -0.035869     -0.041394      0.077263
     4   Atom        0.012355      0.010256     -0.022611
     5   Atom        0.010074      0.012914     -0.022988
     6   Atom       -0.047078     -0.045320      0.092398
     7   Atom       -0.035912     -0.041378      0.077290
 --------------------------------------------------------
                        XY            XZ            YZ
 --------------------------------------------------------
     1   Atom        0.000688      0.005983      0.003704
     2   Atom       -0.000703     -0.005976      0.003654
     3   Atom       -0.001473     -0.006643      0.002321
     4   Atom        0.000007     -0.000002      0.000820
     5   Atom       -0.000001     -0.000004     -0.001537
     6   Atom        0.000003      0.000000     -0.002231
     7   Atom        0.001473      0.006658      0.002358
 --------------------------------------------------------


 ---------------------------------------------------------------------------------
              Anisotropic Spin Dipole Couplings in Principal Axis System
 ---------------------------------------------------------------------------------

       Atom             a.u.   MegaHertz   Gauss  10(-4) cm-1        Axes

              Baa    -0.0493    -6.969    -2.487    -2.325  0.7729 -0.6343 -0.0155
     1 Na(23) Bbb    -0.0483    -6.815    -2.432    -2.273  0.6332  0.7727 -0.0457
              Bcc     0.0976    13.783     4.918     4.598  0.0410  0.0255  0.9988
 
              Baa    -0.0492    -6.953    -2.481    -2.319  0.7567  0.6536  0.0146
     2 Na(23) Bbb    -0.0481    -6.795    -2.425    -2.267 -0.6524  0.7565 -0.0459
              Bcc     0.0974    13.748     4.906     4.586 -0.0410  0.0252  0.9988
 
              Baa    -0.0418    -5.898    -2.105    -1.967  0.2363  0.9717 -0.0058
     3 Na(23) Bbb    -0.0359    -5.074    -1.811    -1.693  0.9699 -0.2355  0.0618
              Bcc     0.0777    10.972     3.915     3.660 -0.0586  0.0202  0.9981
 
              Baa    -0.0226    -3.196    -1.140    -1.066  0.0001 -0.0249  0.9997
     4 Na(23) Bbb     0.0103     1.451     0.518     0.484 -0.0032  0.9997  0.0249
              Bcc     0.0124     1.745     0.623     0.582  1.0000  0.0032  0.0000
 
              Baa    -0.0231    -3.256    -1.162    -1.086  0.0001  0.0427  0.9991
     5 Na(23) Bbb     0.0101     1.423     0.508     0.475  1.0000  0.0004 -0.0001
              Bcc     0.0130     1.833     0.654     0.611 -0.0004  0.9991 -0.0427
 
              Baa    -0.0471    -6.648    -2.372    -2.218  1.0000 -0.0019 -0.0000
     6 Na(23) Bbb    -0.0454    -6.405    -2.285    -2.136  0.0019  0.9999  0.0162
              Bcc     0.0924    13.053     4.658     4.354  0.0000 -0.0162  0.9999
 
              Baa    -0.0418    -5.896    -2.104    -1.967 -0.2382  0.9712 -0.0059
     7 Na(23) Bbb    -0.0360    -5.080    -1.813    -1.695  0.9694  0.2374 -0.0619
              Bcc     0.0777    10.977     3.917     3.661  0.0587  0.0205  0.9981
 

 ---------------------------------------------------------------------------------

 No NMR shielding tensors so no spin-rotation constants.
 Leave Link  601 at Mon Nov 13 20:50:19 2023, MaxMem=  1879048192 cpu:               2.7 elap:               0.2
 (Enter /home/sekinelabo/g16/l701.exe)
 ... and contract with generalized density number  0.
 Compute integral first derivatives.
 Leave Link  701 at Mon Nov 13 20:50:19 2023, MaxMem=  1879048192 cpu:               1.7 elap:               0.1
 (Enter /home/sekinelabo/g16/l702.exe)
 L702 exits ... SP integral derivatives will be done elsewhere.
 Leave Link  702 at Mon Nov 13 20:50:19 2023, MaxMem=  1879048192 cpu:               0.5 elap:               0.0
 (Enter /home/sekinelabo/g16/l703.exe)
 Integral derivatives from FoFJK, PRISM(SPDF).
 Compute integral first derivatives, UseDBF=F ICtDFT=           0.
 Calling FoFJK, ICntrl=      2127 FMM=F ISym2X=0 I1Cent= 0 IOpClX= 1 NMat=1 NMatS=1 NMatT=0.
 FoFJK:  IHMeth= 1 ICntrl=    2127 DoSepK=F KAlg= 0 I1Cent=           0 FoldK=F
 IRaf=         0 NMat=       1 IRICut=       1 DoRegI=T DoRafI=F ISym2E= 0 IDoP0=0 IntGTp=1.
 FoFCou: FMM=F IPFlag=           0 FMFlag=      100000 FMFlg1=         800
         NFxFlg=           0 DoJE=F BraDBF=F KetDBF=F FulRan=T
         wScrn=  0.000000 ICntrl=      2127 IOpCl=  1 I1Cent=           0 NGrid=           0
         NMat0=    1 NMatS0=      1 NMatT0=    0 NMatD0=    1 NMtDS0=    0 NMtDT0=    0
 Symmetry not used in FoFCou.
 Leave Link  703 at Mon Nov 13 20:50:22 2023, MaxMem=  1879048192 cpu:              39.1 elap:               2.5
 (Enter /home/sekinelabo/g16/l716.exe)
 Dipole        =-3.09525431D-04-8.74908777D-02 3.62668766D-02
 ***** Axes restored to original set *****
 -------------------------------------------------------------------
 Center     Atomic                   Forces (Hartrees/Bohr)
 Number     Number              X              Y              Z
 -------------------------------------------------------------------
      1       11          -0.032866679    0.045701446    0.001913127
      2       11           0.033095183    0.045473813    0.001891195
      3       11          -0.045662787   -0.017725729   -0.002169762
      4       11          -0.000013145   -0.002474557   -0.045007801
      5       11           0.000006332   -0.002234167    0.047310800
      6       11          -0.000138534   -0.050880191   -0.001770689
      7       11           0.045579631   -0.017860615   -0.002166869
 -------------------------------------------------------------------
 Cartesian Forces:  Max     0.050880191 RMS     0.029286364
 Z-matrix is all fixed cartesians, so copy forces.
 Force constants in Cartesian coordinates: 
                1             2             3             4             5 
      1  0.384858D+00
      2 -0.406656D-01  0.426735D+00
      3 -0.492840D-02 -0.299541D-02  0.467371D+00
      4 -0.142287D+00 -0.581520D-01 -0.171182D-02  0.384456D+00
      5  0.583410D-01 -0.981355D-01  0.721644D-02  0.409381D-01  0.425279D+00
      6  0.171695D-02  0.724430D-02 -0.216087D+00  0.491374D-02 -0.301005D-02
      7 -0.832451D-01  0.400785D-01  0.572237D-02 -0.129701D-01 -0.167936D-01
      8 -0.624182D-01 -0.131758D+00  0.252490D-03 -0.413352D-01  0.103743D-01
      9 -0.104810D-02  0.334880D-02 -0.170055D+00 -0.185077D-03 -0.416502D-02
     10 -0.801415D-01 -0.231040D-02  0.576246D-01 -0.799325D-01  0.223582D-02
     11  0.236438D-02 -0.819419D-01 -0.732593D-01 -0.234104D-02 -0.817872D-01
     12 -0.182145D-01  0.263656D-01 -0.872476D-01  0.183456D-01  0.263054D-01
     13 -0.868912D-01  0.180931D-02 -0.557760D-01 -0.867562D-01 -0.184444D-02
     14 -0.640861D-03 -0.885929D-01  0.736789D-01  0.719698D-03 -0.884074D-01
     15  0.238741D-01 -0.253093D-01 -0.897485D-01 -0.239772D-01 -0.251823D-01
     16  0.204436D-01  0.422918D-01 -0.411812D-02  0.202795D-01 -0.424809D-01
     17  0.154064D-02 -0.364579D-01  0.987765D-03 -0.190133D-02 -0.361368D-01
     18 -0.161127D-02 -0.451889D-02  0.289776D-01  0.159862D-02 -0.448358D-02
     19 -0.127367D-01  0.169484D-01  0.318738D-02 -0.827901D-01 -0.403959D-01
     20  0.414787D-01  0.101513D-01 -0.588088D-02  0.620718D-01 -0.131187D+00
     21  0.211230D-03 -0.413514D-02  0.667889D-01  0.101613D-02  0.331905D-02
                6             7             8             9            10 
      6  0.466346D+00
      7 -0.319293D-02  0.350806D+00
      8 -0.589963D-02  0.177486D-01  0.283651D+00
      9  0.671686D-01 -0.152083D-02 -0.360633D-02  0.329209D+00
     10 -0.575348D-01 -0.667067D-01 -0.123167D-02  0.728117D-01  0.337119D+00
     11 -0.728906D-01  0.623504D-03 -0.560019D-01  0.337352D-01  0.126698D-03
     12 -0.873532D-01 -0.321426D-01 -0.458673D-02 -0.726274D-01  0.149731D-03
     13  0.560089D-01 -0.544666D-01  0.408621D-02 -0.743799D-01  0.331435D-01
     14  0.733370D-01 -0.141707D-02 -0.462269D-01 -0.303228D-01 -0.157965D-04
     15 -0.898489D-01  0.309311D-01  0.573690D-02 -0.710742D-01 -0.489932D-04
     16  0.381739D-02 -0.107024D+00  0.733127D-01  0.105737D-02 -0.766029D-01
     17  0.973344D-03 -0.306766D-01 -0.896085D-01 -0.706680D-03 -0.692667D-04
     18  0.288644D-01  0.345118D-02  0.636815D-02 -0.130908D+00 -0.265838D-03
     19 -0.572926D-02 -0.263940D-01  0.983755D-02  0.326483D-02 -0.668793D-01
     20  0.245637D-03 -0.956331D-02  0.295697D-01  0.171683D-02  0.126463D-02
     21 -0.169090D+00 -0.324830D-02  0.173515D-02  0.482872D-01 -0.727364D-01
               11            12            13            14            15 
     11  0.325456D+00
     12 -0.109257D-01  0.472101D+00
     13 -0.196538D-04  0.323582D-04  0.348293D+00
     14  0.237565D-01 -0.981087D-03  0.263325D-05  0.342343D+00
     15  0.554522D-02 -0.679982D-01  0.435695D-04  0.378010D-02  0.495095D+00
     16 -0.145654D-03 -0.250603D-03 -0.986678D-01 -0.370673D-04  0.790398D-04
     17 -0.732234D-01 -0.314423D-01  0.381561D-04 -0.963778D-01  0.295702D-01
     18  0.837090D-01 -0.841358D-01 -0.228726D-03 -0.887899D-01 -0.105189D+00
     19 -0.608240D-03  0.320800D-01 -0.546548D-01  0.138846D-02 -0.309016D-01
     20 -0.562582D-01 -0.473524D-02 -0.407221D-02 -0.464942D-01  0.585915D-02
     21  0.340861D-01 -0.727386D-01  0.742998D-01 -0.307021D-01 -0.712364D-01
               16            17            18            19            20 
     16  0.348816D+00
     17  0.274921D-03  0.421184D+00
     18  0.467637D-03  0.133036D-02  0.393137D+00
     19 -0.107244D+00  0.307935D-01 -0.341160D-02  0.350699D+00
     20 -0.732158D-01 -0.893794D-01  0.638483D-02 -0.179637D-01  0.283597D+00
     21 -0.105272D-02 -0.712695D-03 -0.130746D+00  0.151024D-02 -0.359033D-02
               21 
     21  0.328735D+00
 Leave Link  716 at Mon Nov 13 20:50:22 2023, MaxMem=  1879048192 cpu:               0.5 elap:               0.0
 (Enter /home/sekinelabo/g16/l103.exe)

 GradGradGradGradGradGradGradGradGradGradGradGradGradGradGradGradGradGrad
 Berny optimization.
 Search for a local minimum.
 Step number   1 out of a maximum of    2
 All quantities printed in internal units (Hartrees-Bohrs-Radians)
 Second derivative matrix not updated -- first step.
 ITU=  0
     Eigenvalues ---    0.28889   0.39565   0.40819   0.42905   0.46460
     Eigenvalues ---    0.47634   0.48245   0.53521   0.55479   0.55539
     Eigenvalues ---    0.57941   0.59362   0.61207   0.63442   0.79637
 Quadratic step=4.476D-01 exceeds max=3.000D-01 adjusted using Lamda=-1.449D-01.
 Angle between NR and scaled steps=   1.75 degrees.
 Angle between quadratic step and forces=   5.71 degrees.
 Linear search not attempted -- first point.
 B after Tr=     0.000000    0.000000   -0.000000
         Rot=    1.000000   -0.000000   -0.000000   -0.000000 Ang=   0.00 deg.
 Variable       Old X    -DE/DX   Delta X   Delta X   Delta X     New X
                                 (Linear)    (Quad)   (Total)
    X1        1.76311  -0.03287   0.00000  -0.07056  -0.07056   1.69255
    Y1        6.82460   0.04570   0.00000   0.09626   0.09626   6.92086
    Z1        3.35720   0.00191   0.00000   0.00407   0.00407   3.36127
    X2        6.38512   0.03310   0.00000   0.07104   0.07104   6.45616
    Y2        6.81990   0.04547   0.00000   0.09603   0.09603   6.91594
    Z2        3.35663   0.00189   0.00000   0.00404   0.00404   3.36067
    X3        0.00000  -0.04566   0.00000  -0.11879  -0.11879  -0.11879
    Y3        2.52369  -0.01773   0.00000  -0.03857  -0.03857   2.48513
    Z3        3.05660  -0.00217   0.00000  -0.00492  -0.00492   3.05168
    X4        4.06895  -0.00001   0.00000   0.00002   0.00002   4.06897
    Y4        3.93187  -0.00247   0.00000   0.00119   0.00119   3.93306
    Z4        0.00000  -0.04501   0.00000  -0.09351  -0.09351  -0.09351
    X5        4.06937   0.00001   0.00000   0.00004   0.00004   4.06941
    Y5        3.69081  -0.00223   0.00000  -0.00301  -0.00301   3.68780
    Z5        6.42480   0.04731   0.00000   0.09444   0.09444   6.51924
    X6        4.05653  -0.00014   0.00000  -0.00031  -0.00031   4.05622
    Y6        0.00000  -0.05088   0.00000  -0.11281  -0.11281  -0.11281
    Z6        3.34541  -0.00177   0.00000   0.00083   0.00083   3.34623
    X7        8.12588   0.04558   0.00000   0.11856   0.11856   8.24444
    Y7        2.50341  -0.01786   0.00000  -0.03910  -0.03910   2.46432
    Z7        3.05612  -0.00217   0.00000  -0.00493  -0.00493   3.05119
         Item               Value     Threshold  Converged?
 Maximum Force            0.050880     0.000450     NO 
 RMS     Force            0.029286     0.000300     NO 
 Maximum Displacement     0.118786     0.001800     NO 
 RMS     Displacement     0.065529     0.001200     NO 
 Predicted change in Energy=-2.658285D-02
 GradGradGradGradGradGradGradGradGradGradGradGradGradGradGradGradGradGrad

 Leave Link  103 at Mon Nov 13 20:50:22 2023, MaxMem=  1879048192 cpu:               0.3 elap:               0.0
 (Enter /home/sekinelabo/g16/l9999.exe)
 1\1\GINC-SEKINELABO-XA7R-R37\Force\UB3LYP\6-311+G(d)\Na7(2)\SEKINELABO
 \13-Nov-2023\0\\#P B3LYP/6-311+g(d) force\\Gaussian input prepared by 
 ASE\\0,2\Na,0.932998478,3.6114227341,1.7765543908\Na,3.3788613795,3.60
 89369379,1.7762537844\Na,0.,1.3354797501,1.6174838884\Na,2.1531972973,
 2.0806549185,0.\Na,2.1534159544,1.9530918358,3.3998597444\Na,2.1466238
 975,0.,1.7703141605\Na,4.3000311358,1.324749284,1.6172303524\\Version=
 ES64L-G16RevB.01\State=2-A\HF=-1135.9755204\S2=0.757291\S2-1=0.\S2A=0.
 750038\RMSD=7.527e-09\RMSF=2.929e-02\Dipole=0.0003095,-0.0874909,-0.03
 62669\Quadrupole=1.9074096,-2.3681875,0.460778,0.0027765,0.0001193,0.1
 985823\PG=C01 [X(Na7)]\\@


 KNOWING HOW CONTENTED, FREE, AND JOYFUL IS LIFE IN
 THE REALMS OF SCIENCE, ONE FERVENTLY WISHES THAT
 MANY WOULD ENTER HER PORTALS.
   --  DMITRI IVANOVICH MENDELEEV
 "FIRST PRINCIPLES OF CHEMISTRY", LONGMANS, GREEN,
 AND CO.  LONDON, 1891
 Job cpu time:       0 days  0 hours  4 minutes 23.5 seconds.
 Elapsed time:       0 days  0 hours  0 minutes 21.2 seconds.
 File lengths (MBytes):  RWF=     32 Int=      0 D2E=      0 Chk=      6 Scr=      1
 Normal termination of Gaussian 16 at Mon Nov 13 20:50:22 2023.
