 Entering Gaussian System, Link 0=g16
 Initial command:
 /home/sekinelabo/g16/l1.exe "/home/sekinelabo/g16temp/Gau-4083248.inp" -scrdir="/home/sekinelabo/g16temp/"
 Entering Link 1 = /home/sekinelabo/g16/l1.exe PID=   4083250.
  
 Copyright (c) 1988-2017, Gaussian, Inc.  All Rights Reserved.
  
 This is part of the Gaussian(R) 16 program.  It is based on
 the Gaussian(R) 09 system (copyright 2009, Gaussian, Inc.),
 the Gaussian(R) 03 system (copyright 2003, Gaussian, Inc.),
 the Gaussian(R) 98 system (copyright 1998, Gaussian, Inc.),
 the Gaussian(R) 94 system (copyright 1995, Gaussian, Inc.),
 the Gaussian 92(TM) system (copyright 1992, Gaussian, Inc.),
 the Gaussian 90(TM) system (copyright 1990, Gaussian, Inc.),
 the Gaussian 88(TM) system (copyright 1988, Gaussian, Inc.),
 the Gaussian 86(TM) system (copyright 1986, Carnegie Mellon
 University), and the Gaussian 82(TM) system (copyright 1983,
 Carnegie Mellon University). Gaussian is a federally registered
 trademark of Gaussian, Inc.
  
 This software contains proprietary and confidential information,
 including trade secrets, belonging to Gaussian, Inc.
  
 This software is provided under written license and may be
 used, copied, transmitted, or stored only in accord with that
 written license.
  
 The following legend is applicable only to US Government
 contracts under FAR:
  
                    RESTRICTED RIGHTS LEGEND
  
 Use, reproduction and disclosure by the US Government is
 subject to restrictions as set forth in subparagraphs (a)
 and (c) of the Commercial Computer Software - Restricted
 Rights clause in FAR 52.227-19.
  
 Gaussian, Inc.
 340 Quinnipiac St., Bldg. 40, Wallingford CT 06492
  
  
 ---------------------------------------------------------------
 Warning -- This program may not be used in any manner that
 competes with the business of Gaussian, Inc. or will provide
 assistance to any competitor of Gaussian, Inc.  The licensee
 of this program is prohibited from giving any competitor of
 Gaussian, Inc. access to this program.  By using this program,
 the user acknowledges that Gaussian, Inc. is engaged in the
 business of creating and licensing software in the field of
 computational chemistry and represents and warrants to the
 licensee that it is not a competitor of Gaussian, Inc. and that
 it will not use this program in any manner prohibited above.
 ---------------------------------------------------------------
  

 Cite this work as:
 Gaussian 16, Revision B.01,
 M. J. Frisch, G. W. Trucks, H. B. Schlegel, G. E. Scuseria, 
 M. A. Robb, J. R. Cheeseman, G. Scalmani, V. Barone, 
 G. A. Petersson, H. Nakatsuji, X. Li, M. Caricato, A. V. Marenich, 
 J. Bloino, B. G. Janesko, R. Gomperts, B. Mennucci, H. P. Hratchian, 
 J. V. Ortiz, A. F. Izmaylov, J. L. Sonnenberg, D. Williams-Young, 
 F. Ding, F. Lipparini, F. Egidi, J. Goings, B. Peng, A. Petrone, 
 T. Henderson, D. Ranasinghe, V. G. Zakrzewski, J. Gao, N. Rega, 
 G. Zheng, W. Liang, M. Hada, M. Ehara, K. Toyota, R. Fukuda, 
 J. Hasegawa, M. Ishida, T. Nakajima, Y. Honda, O. Kitao, H. Nakai, 
 T. Vreven, K. Throssell, J. A. Montgomery, Jr., J. E. Peralta, 
 F. Ogliaro, M. J. Bearpark, J. J. Heyd, E. N. Brothers, K. N. Kudin, 
 V. N. Staroverov, T. A. Keith, R. Kobayashi, J. Normand, 
 K. Raghavachari, A. P. Rendell, J. C. Burant, S. S. Iyengar, 
 J. Tomasi, M. Cossi, J. M. Millam, M. Klene, C. Adamo, R. Cammi, 
 J. W. Ochterski, R. L. Martin, K. Morokuma, O. Farkas, 
 J. B. Foresman, and D. J. Fox, Gaussian, Inc., Wallingford CT, 2016.
 
 ******************************************
 Gaussian 16:  ES64L-G16RevB.01 20-Dec-2017
                13-Nov-2023 
 ******************************************
 %mem=14GB
 %chk=checkpoint.chk
 %nprocshared=16
 Will use up to   16 processors via shared memory.
 -------------------------
 #P B3LYP/6-311+g(d) force
 -------------------------
 1/10=7,30=1,38=1/1,3;
 2/12=2,17=6,18=5,40=1/2;
 3/5=4,6=6,7=11,11=2,25=1,30=1,71=1,74=-5/1,2,3;
 4//1;
 5/5=2,38=5/2;
 6/7=2,8=2,9=2,10=2,28=1/1;
 7/29=1/1,2,3,16;
 1/10=7,30=1/3;
 99//99;
 Leave Link    1 at Mon Nov 13 17:31:45 2023, MaxMem=  1879048192 cpu:               0.3 elap:               0.0
 (Enter /home/sekinelabo/g16/l101.exe)
 ------------------------------
 Gaussian input prepared by ASE
 ------------------------------
 Symbolic Z-matrix:
 Charge =  0 Multiplicity = 2
 Na                    2.31711   0.        1.57597 
 Na                    4.36396   5.27609   1.90661 
 Na                    7.00278   0.8218    1.02929 
 Na                    4.78679   0.85334   3.05018 
 Na                    2.65225   2.86057   2.40272 
 Na                    0.        1.49704   2.74864 
 Na                    0.98542   2.17873   0. 
 
 ITRead=  0  0  0  0  0  0  0
 MicOpt= -1 -1 -1 -1 -1 -1 -1
 NAtoms=      7 NQM=        7 NQMF=       0 NMMI=      0 NMMIF=      0
                NMic=       0 NMicF=      0.
                    Isotopes and Nuclear Properties:
 (Nuclear quadrupole moments (NQMom) in fm**2, nuclear magnetic moments (NMagM)
  in nuclear magnetons)

  Atom         1           2           3           4           5           6           7
 IAtWgt=          23          23          23          23          23          23          23
 AtmWgt=  22.9897697  22.9897697  22.9897697  22.9897697  22.9897697  22.9897697  22.9897697
 NucSpn=           3           3           3           3           3           3           3
 AtZEff=  -0.0000000  -0.0000000  -0.0000000  -0.0000000  -0.0000000  -0.0000000  -0.0000000
 NQMom=   10.4000000  10.4000000  10.4000000  10.4000000  10.4000000  10.4000000  10.4000000
 NMagM=    2.2175200   2.2175200   2.2175200   2.2175200   2.2175200   2.2175200   2.2175200
 AtZNuc=  11.0000000  11.0000000  11.0000000  11.0000000  11.0000000  11.0000000  11.0000000
 Leave Link  101 at Mon Nov 13 17:31:45 2023, MaxMem=  1879048192 cpu:               2.6 elap:               0.2
 (Enter /home/sekinelabo/g16/l103.exe)

 GradGradGradGradGradGradGradGradGradGradGradGradGradGradGradGradGradGrad
 Berny optimization.
 Initialization pass.
 Trust Radius=3.00D-01 FncErr=1.00D-07 GrdErr=1.00D-07 EigMax=2.50D+02 EigMin=1.00D-04
 Number of steps in this run=      2 maximum allowed number of steps=      2.
 GradGradGradGradGradGradGradGradGradGradGradGradGradGradGradGradGradGrad

 Leave Link  103 at Mon Nov 13 17:31:45 2023, MaxMem=  1879048192 cpu:               0.2 elap:               0.0
 (Enter /home/sekinelabo/g16/l202.exe)
                          Input orientation:                          
 ---------------------------------------------------------------------
 Center     Atomic      Atomic             Coordinates (Angstroms)
 Number     Number       Type             X           Y           Z
 ---------------------------------------------------------------------
      1         11           0        2.317105    0.000000    1.575965
      2         11           0        4.363961    5.276095    1.906613
      3         11           0        7.002782    0.821798    1.029292
      4         11           0        4.786786    0.853338    3.050184
      5         11           0        2.652247    2.860568    2.402720
      6         11           0        0.000000    1.497043    2.748643
      7         11           0        0.985422    2.178731    0.000000
 ---------------------------------------------------------------------
                    Distance matrix (angstroms):
                    1          2          3          4          5
     1  Na   0.000000
     2  Na   5.668873   0.000000
     3  Na   4.788504   5.251079   0.000000
     4  Na   3.000139   4.587735   2.999273   0.000000
     5  Na   2.996447   3.001809   4.997004   3.000740   0.000000
     6  Na   2.997547   5.833901   7.242312   4.839277   3.002212
     7  Na   3.000652   4.964208   6.253745   5.050807   3.002710
                    6          7
     6  Na   0.000000
     7  Na   2.998465   0.000000
 Stoichiometry    Na7(2)
 Framework group  C1[X(Na7)]
 Deg. of freedom    15
 Full point group                 C1      NOp   1
 Largest Abelian subgroup         C1      NOp   1
 Largest concise Abelian subgroup C1      NOp   1
                         Standard orientation:                         
 ---------------------------------------------------------------------
 Center     Atomic      Atomic             Coordinates (Angstroms)
 Number     Number       Type             X           Y           Z
 ---------------------------------------------------------------------
      1         11           0        0.841224   -1.926796    0.240237
      2         11           0       -1.205632    3.349299   -0.090411
      3         11           0       -3.844453   -1.104999    0.786911
      4         11           0       -1.628457   -1.073458   -1.233982
      5         11           0        0.506082    0.933772   -0.586518
      6         11           0        3.158329   -0.429753   -0.932440
      7         11           0        2.172907    0.251935    1.816202
 ---------------------------------------------------------------------
 Rotational constants (GHZ):           0.8742880           0.5327164           0.4150094
 Leave Link  202 at Mon Nov 13 17:31:45 2023, MaxMem=  1879048192 cpu:               0.1 elap:               0.0
 (Enter /home/sekinelabo/g16/l301.exe)
 Standard basis: 6-311+G(d) (5D, 7F)
 Ernie: Thresh=  0.10000D-02 Tol=  0.10000D-05 Strict=F.
 There are   217 symmetry adapted cartesian basis functions of A   symmetry.
 There are   210 symmetry adapted basis functions of A   symmetry.
   210 basis functions,   350 primitive gaussians,   217 cartesian basis functions
    39 alpha electrons       38 beta electrons
       nuclear repulsion energy       345.9287206918 Hartrees.
 IExCor=  402 DFT=T Ex+Corr=B3LYP ExCW=0 ScaHFX=  0.200000
 ScaDFX=  0.800000  0.720000  1.000000  0.810000 ScalE2=  1.000000  1.000000
 IRadAn=      5 IRanWt=     -1 IRanGd=            0 ICorTp=0 IEmpDi=  4
 NAtoms=    7 NActive=    7 NUniq=    7 SFac= 1.00D+00 NAtFMM=   60 NAOKFM=F Big=F
 Integral buffers will be    131072 words long.
 Raffenetti 2 integral format.
 Two-electron integral symmetry is turned on.
 Leave Link  301 at Mon Nov 13 17:31:45 2023, MaxMem=  1879048192 cpu:               0.5 elap:               0.0
 (Enter /home/sekinelabo/g16/l302.exe)
 NPDir=0 NMtPBC=     1 NCelOv=     1 NCel=       1 NClECP=     1 NCelD=      1
         NCelK=      1 NCelE2=     1 NClLst=     1 CellRange=     0.0.
 One-electron integrals computed using PRISM.
 One-electron integral symmetry used in STVInt
 NBasis=   210 RedAO= T EigKep=  1.37D-06  NBF=   210
 NBsUse=   210 1.00D-06 EigRej= -1.00D+00 NBFU=   210
 Precomputing XC quadrature grid using
 IXCGrd= 4 IRadAn=           5 IRanWt=          -1 IRanGd=           0 AccXCQ= 0.00D+00.
 Generated NRdTot=       0 NPtTot=           0 NUsed=           0 NTot=          32
 NSgBfM=   210   210   210   210   210 MxSgAt=     7 MxSgA2=     7.
 Leave Link  302 at Mon Nov 13 17:31:45 2023, MaxMem=  1879048192 cpu:               2.2 elap:               0.1
 (Enter /home/sekinelabo/g16/l303.exe)
 DipDrv:  MaxL=1.
 Leave Link  303 at Mon Nov 13 17:31:45 2023, MaxMem=  1879048192 cpu:               0.6 elap:               0.0
 (Enter /home/sekinelabo/g16/l401.exe)
 ExpMin= 7.60D-03 ExpMax= 3.62D+04 ExpMxC= 1.21D+03 IAcc=3 IRadAn=         5 AccDes= 0.00D+00
 Harris functional with IExCor=  402 and IRadAn=       5 diagonalized for initial guess.
 HarFok:  IExCor=  402 AccDes= 0.00D+00 IRadAn=         5 IDoV= 1 UseB2=F ITyADJ=14
 ICtDFT=  3500011 ScaDFX=  1.000000  1.000000  1.000000  1.000000
 FoFCou: FMM=F IPFlag=           0 FMFlag=      100000 FMFlg1=           0
         NFxFlg=           0 DoJE=T BraDBF=F KetDBF=T FulRan=T
         wScrn=  0.000000 ICntrl=       500 IOpCl=  0 I1Cent=   200000004 NGrid=           0
         NMat0=    1 NMatS0=      1 NMatT0=    0 NMatD0=    1 NMtDS0=    0 NMtDT0=    0
 Petite list used in FoFCou.
 Harris En= -1135.86603185897    
 JPrj=0 DoOrth=F DoCkMO=F.
 Initial guess <Sx>= 0.0000 <Sy>= 0.0000 <Sz>= 0.5000 <S**2>= 0.7500 S= 0.5000
 Leave Link  401 at Mon Nov 13 17:31:46 2023, MaxMem=  1879048192 cpu:               4.8 elap:               0.3
 (Enter /home/sekinelabo/g16/l502.exe)
 Keep R1 and R2 ints in memory in canonical form, NReq=507620374.
 FoFCou: FMM=F IPFlag=           0 FMFlag=           0 FMFlg1=           0
         NFxFlg=           0 DoJE=F BraDBF=F KetDBF=F FulRan=T
         wScrn=  0.000000 ICntrl=       600 IOpCl=  0 I1Cent=           0 NGrid=           0
         NMat0=    1 NMatS0=  22155 NMatT0=    0 NMatD0=    1 NMtDS0=    0 NMtDT0=    0
 Symmetry not used in FoFCou.
 Two-electron integral symmetry not used.
 UHF open shell SCF:
 Using DIIS extrapolation, IDIIS=  1040.
 NGot=  1879048192 LenX=  1388082362 LenY=  1388034832
 Requested convergence on RMS density matrix=1.00D-08 within 128 cycles.
 Requested convergence on MAX density matrix=1.00D-06.
 Requested convergence on             energy=1.00D-06.
 No special actions if energy rises.

 Cycle   1  Pass 1  IDiag  1:
 E= -1136.05136965972    
 DIIS: error= 1.06D-02 at cycle   1 NSaved=   1.
 NSaved= 1 IEnMin= 1 EnMin= -1136.05136965972     IErMin= 1 ErrMin= 1.06D-02
 ErrMax= 1.06D-02  0.00D+00 EMaxC= 1.00D-01 BMatC= 1.99D-01 BMatP= 1.99D-01
 IDIUse=3 WtCom= 8.94D-01 WtEn= 1.06D-01
 Coeff-Com:  0.100D+01
 Coeff-En:   0.100D+01
 Coeff:      0.100D+01
 Gap=     0.026 Goal=   None    Shift=    0.000
 Gap=     0.038 Goal=   None    Shift=    0.000
 GapD=    0.026 DampG=0.250 DampE=0.500 DampFc=0.2500 IDamp=-1.
 Damping current iteration by 2.50D-01
 RMSDP=8.27D-02 MaxDP=1.17D+01              OVMax= 2.99D-01

 Cycle   2  Pass 1  IDiag  1:
 E= -1136.06553390861     Delta-E=       -0.014164248894 Rises=F Damp=T
 DIIS: error= 7.22D-03 at cycle   2 NSaved=   2.
 NSaved= 2 IEnMin= 2 EnMin= -1136.06553390861     IErMin= 2 ErrMin= 7.22D-03
 ErrMax= 7.22D-03  0.00D+00 EMaxC= 1.00D-01 BMatC= 7.48D-02 BMatP= 1.99D-01
 IDIUse=3 WtCom= 9.28D-01 WtEn= 7.22D-02
 Coeff-Com: -0.121D+01 0.221D+01
 Coeff-En:   0.000D+00 0.100D+01
 Coeff:     -0.113D+01 0.213D+01
 Gap=     0.038 Goal=   None    Shift=    0.000
 Gap=     0.044 Goal=   None    Shift=    0.000
 RMSDP=3.38D-02 MaxDP=4.10D+00 DE=-1.42D-02 OVMax= 3.29D-01

 Cycle   3  Pass 1  IDiag  1:
 E= -1136.07748035407     Delta-E=       -0.011946445457 Rises=F Damp=F
 DIIS: error= 6.96D-03 at cycle   3 NSaved=   3.
 NSaved= 3 IEnMin= 3 EnMin= -1136.07748035407     IErMin= 3 ErrMin= 6.96D-03
 ErrMax= 6.96D-03  0.00D+00 EMaxC= 1.00D-01 BMatC= 1.35D-02 BMatP= 7.48D-02
 IDIUse=3 WtCom= 9.30D-01 WtEn= 6.96D-02
 Coeff-Com: -0.545D+00 0.954D+00 0.591D+00
 Coeff-En:   0.000D+00 0.000D+00 0.100D+01
 Coeff:     -0.507D+00 0.887D+00 0.619D+00
 Gap=     0.033 Goal=   None    Shift=    0.000
 Gap=     0.051 Goal=   None    Shift=    0.000
 RMSDP=2.25D-02 MaxDP=3.39D+00 DE=-1.19D-02 OVMax= 2.14D-01

 Cycle   4  Pass 1  IDiag  1:
 E= -1136.07790959688     Delta-E=       -0.000429242814 Rises=F Damp=F
 DIIS: error= 5.29D-03 at cycle   4 NSaved=   4.
 NSaved= 4 IEnMin= 4 EnMin= -1136.07790959688     IErMin= 4 ErrMin= 5.29D-03
 ErrMax= 5.29D-03  0.00D+00 EMaxC= 1.00D-01 BMatC= 1.15D-02 BMatP= 1.35D-02
 IDIUse=3 WtCom= 9.47D-01 WtEn= 5.29D-02
 Coeff-Com: -0.610D-01 0.999D-01 0.470D+00 0.491D+00
 Coeff-En:   0.000D+00 0.000D+00 0.495D+00 0.505D+00
 Coeff:     -0.578D-01 0.946D-01 0.471D+00 0.492D+00
 Gap=     0.034 Goal=   None    Shift=    0.000
 Gap=     0.042 Goal=   None    Shift=    0.000
 RMSDP=1.01D-02 MaxDP=9.43D-01 DE=-4.29D-04 OVMax= 1.61D-01

 Cycle   5  Pass 1  IDiag  1:
 E= -1136.09147545455     Delta-E=       -0.013565857669 Rises=F Damp=F
 DIIS: error= 1.41D-03 at cycle   5 NSaved=   5.
 NSaved= 5 IEnMin= 5 EnMin= -1136.09147545455     IErMin= 5 ErrMin= 1.41D-03
 ErrMax= 1.41D-03  0.00D+00 EMaxC= 1.00D-01 BMatC= 7.36D-04 BMatP= 1.15D-02
 IDIUse=3 WtCom= 9.86D-01 WtEn= 1.41D-02
 Coeff-Com: -0.122D-01 0.152D-01 0.247D+00 0.301D+00 0.450D+00
 Coeff-En:   0.000D+00 0.000D+00 0.000D+00 0.183D-01 0.982D+00
 Coeff:     -0.121D-01 0.150D-01 0.243D+00 0.297D+00 0.457D+00
 Gap=     0.035 Goal=   None    Shift=    0.000
 Gap=     0.043 Goal=   None    Shift=    0.000
 RMSDP=2.77D-03 MaxDP=2.62D-01 DE=-1.36D-02 OVMax= 3.58D-02

 Cycle   6  Pass 1  IDiag  1:
 E= -1136.09228832896     Delta-E=       -0.000812874408 Rises=F Damp=F
 DIIS: error= 2.55D-04 at cycle   6 NSaved=   6.
 NSaved= 6 IEnMin= 6 EnMin= -1136.09228832896     IErMin= 6 ErrMin= 2.55D-04
 ErrMax= 2.55D-04  0.00D+00 EMaxC= 1.00D-01 BMatC= 2.79D-05 BMatP= 7.36D-04
 IDIUse=3 WtCom= 9.97D-01 WtEn= 2.55D-03
 Coeff-Com: -0.107D-02 0.521D-03-0.118D-01-0.160D-01 0.134D+00 0.894D+00
 Coeff-En:   0.000D+00 0.000D+00 0.000D+00 0.000D+00 0.000D+00 0.100D+01
 Coeff:     -0.107D-02 0.520D-03-0.118D-01-0.159D-01 0.134D+00 0.895D+00
 Gap=     0.035 Goal=   None    Shift=    0.000
 Gap=     0.043 Goal=   None    Shift=    0.000
 RMSDP=1.03D-03 MaxDP=1.03D-01 DE=-8.13D-04 OVMax= 8.24D-03

 Cycle   7  Pass 1  IDiag  1:
 E= -1136.09233082119     Delta-E=       -0.000042492235 Rises=F Damp=F
 DIIS: error= 7.45D-05 at cycle   7 NSaved=   7.
 NSaved= 7 IEnMin= 7 EnMin= -1136.09233082119     IErMin= 7 ErrMin= 7.45D-05
 ErrMax= 7.45D-05  0.00D+00 EMaxC= 1.00D-01 BMatC= 3.70D-06 BMatP= 2.79D-05
 IDIUse=1 WtCom= 1.00D+00 WtEn= 0.00D+00
 Coeff-Com:  0.534D-03-0.103D-02-0.167D-01-0.237D-01 0.274D-01 0.364D+00
 Coeff-Com:  0.649D+00
 Coeff:      0.534D-03-0.103D-02-0.167D-01-0.237D-01 0.274D-01 0.364D+00
 Coeff:      0.649D+00
 Gap=     0.036 Goal=   None    Shift=    0.000
 Gap=     0.043 Goal=   None    Shift=    0.000
 RMSDP=4.35D-04 MaxDP=3.13D-02 DE=-4.25D-05 OVMax= 4.23D-03

 Cycle   8  Pass 1  IDiag  1:
 E= -1136.09233723527     Delta-E=       -0.000006414078 Rises=F Damp=F
 DIIS: error= 6.40D-05 at cycle   8 NSaved=   8.
 NSaved= 8 IEnMin= 8 EnMin= -1136.09233723527     IErMin= 8 ErrMin= 6.40D-05
 ErrMax= 6.40D-05  0.00D+00 EMaxC= 1.00D-01 BMatC= 1.16D-06 BMatP= 3.70D-06
 IDIUse=1 WtCom= 1.00D+00 WtEn= 0.00D+00
 Coeff-Com:  0.902D-03-0.123D-02-0.523D-02-0.802D-02-0.191D-01-0.500D-01
 Coeff-Com:  0.328D+00 0.755D+00
 Coeff:      0.902D-03-0.123D-02-0.523D-02-0.802D-02-0.191D-01-0.500D-01
 Coeff:      0.328D+00 0.755D+00
 Gap=     0.036 Goal=   None    Shift=    0.000
 Gap=     0.043 Goal=   None    Shift=    0.000
 RMSDP=2.64D-04 MaxDP=2.01D-02 DE=-6.41D-06 OVMax= 2.80D-03

 Cycle   9  Pass 1  IDiag  1:
 E= -1136.09234094936     Delta-E=       -0.000003714091 Rises=F Damp=F
 DIIS: error= 2.90D-05 at cycle   9 NSaved=   9.
 NSaved= 9 IEnMin= 9 EnMin= -1136.09234094936     IErMin= 9 ErrMin= 2.90D-05
 ErrMax= 2.90D-05  0.00D+00 EMaxC= 1.00D-01 BMatC= 2.51D-07 BMatP= 1.16D-06
 IDIUse=1 WtCom= 1.00D+00 WtEn= 0.00D+00
 Coeff-Com:  0.310D-03-0.358D-03-0.285D-04 0.188D-03-0.959D-02-0.825D-01
 Coeff-Com: -0.374D-01 0.180D+00 0.949D+00
 Coeff:      0.310D-03-0.358D-03-0.285D-04 0.188D-03-0.959D-02-0.825D-01
 Coeff:     -0.374D-01 0.180D+00 0.949D+00
 Gap=     0.036 Goal=   None    Shift=    0.000
 Gap=     0.043 Goal=   None    Shift=    0.000
 RMSDP=2.14D-04 MaxDP=2.04D-02 DE=-3.71D-06 OVMax= 3.04D-03

 Cycle  10  Pass 1  IDiag  1:
 E= -1136.09234285538     Delta-E=       -0.000001906014 Rises=F Damp=F
 DIIS: error= 2.18D-05 at cycle  10 NSaved=  10.
 NSaved=10 IEnMin=10 EnMin= -1136.09234285538     IErMin=10 ErrMin= 2.18D-05
 ErrMax= 2.18D-05  0.00D+00 EMaxC= 1.00D-01 BMatC= 1.52D-07 BMatP= 2.51D-07
 IDIUse=1 WtCom= 1.00D+00 WtEn= 0.00D+00
 Coeff-Com: -0.459D-04 0.980D-04 0.134D-02 0.196D-02 0.232D-02-0.232D-01
 Coeff-Com: -0.126D+00-0.191D+00 0.513D+00 0.821D+00
 Coeff:     -0.459D-04 0.980D-04 0.134D-02 0.196D-02 0.232D-02-0.232D-01
 Coeff:     -0.126D+00-0.191D+00 0.513D+00 0.821D+00
 Gap=     0.036 Goal=   None    Shift=    0.000
 Gap=     0.044 Goal=   None    Shift=    0.000
 RMSDP=1.55D-04 MaxDP=1.40D-02 DE=-1.91D-06 OVMax= 2.51D-03

 Cycle  11  Pass 1  IDiag  1:
 E= -1136.09234401816     Delta-E=       -0.000001162787 Rises=F Damp=F
 DIIS: error= 1.31D-05 at cycle  11 NSaved=  11.
 NSaved=11 IEnMin=11 EnMin= -1136.09234401816     IErMin=11 ErrMin= 1.31D-05
 ErrMax= 1.31D-05  0.00D+00 EMaxC= 1.00D-01 BMatC= 5.21D-08 BMatP= 1.52D-07
 IDIUse=1 WtCom= 1.00D+00 WtEn= 0.00D+00
 Coeff-Com: -0.265D-03 0.345D-03 0.788D-03 0.384D-03 0.804D-02 0.480D-01
 Coeff-Com: -0.816D-02-0.192D+00-0.398D+00 0.181D+00 0.136D+01
 Coeff:     -0.265D-03 0.345D-03 0.788D-03 0.384D-03 0.804D-02 0.480D-01
 Coeff:     -0.816D-02-0.192D+00-0.398D+00 0.181D+00 0.136D+01
 Gap=     0.036 Goal=   None    Shift=    0.000
 Gap=     0.044 Goal=   None    Shift=    0.000
 RMSDP=1.49D-04 MaxDP=1.59D-02 DE=-1.16D-06 OVMax= 3.34D-03

 Cycle  12  Pass 1  IDiag  1:
 E= -1136.09234489610     Delta-E=       -0.000000877940 Rises=F Damp=F
 DIIS: error= 6.09D-06 at cycle  12 NSaved=  12.
 NSaved=12 IEnMin=12 EnMin= -1136.09234489610     IErMin=12 ErrMin= 6.09D-06
 ErrMax= 6.09D-06  0.00D+00 EMaxC= 1.00D-01 BMatC= 1.23D-08 BMatP= 5.21D-08
 IDIUse=1 WtCom= 1.00D+00 WtEn= 0.00D+00
 Coeff-Com: -0.107D-03 0.129D-03-0.599D-03-0.574D-03 0.201D-02 0.205D-01
 Coeff-Com:  0.377D-01 0.191D-01-0.175D+00-0.279D+00 0.373D-01 0.134D+01
 Coeff:     -0.107D-03 0.129D-03-0.599D-03-0.574D-03 0.201D-02 0.205D-01
 Coeff:      0.377D-01 0.191D-01-0.175D+00-0.279D+00 0.373D-01 0.134D+01
 Gap=     0.036 Goal=   None    Shift=    0.000
 Gap=     0.044 Goal=   None    Shift=    0.000
 RMSDP=8.67D-05 MaxDP=7.71D-03 DE=-8.78D-07 OVMax= 2.23D-03

 Cycle  13  Pass 1  IDiag  1:
 E= -1136.09234514301     Delta-E=       -0.000000246912 Rises=F Damp=F
 DIIS: error= 2.91D-06 at cycle  13 NSaved=  13.
 NSaved=13 IEnMin=13 EnMin= -1136.09234514301     IErMin=13 ErrMin= 2.91D-06
 ErrMax= 2.91D-06  0.00D+00 EMaxC= 1.00D-01 BMatC= 2.84D-09 BMatP= 1.23D-08
 IDIUse=1 WtCom= 1.00D+00 WtEn= 0.00D+00
 Coeff-Com:  0.263D-04-0.370D-04-0.368D-03-0.283D-03-0.806D-03-0.213D-02
 Coeff-Com:  0.119D-01 0.299D-01 0.254D-01-0.907D-01-0.264D+00 0.406D+00
 Coeff-Com:  0.885D+00
 Coeff:      0.263D-04-0.370D-04-0.368D-03-0.283D-03-0.806D-03-0.213D-02
 Coeff:      0.119D-01 0.299D-01 0.254D-01-0.907D-01-0.264D+00 0.406D+00
 Coeff:      0.885D+00
 Gap=     0.036 Goal=   None    Shift=    0.000
 Gap=     0.044 Goal=   None    Shift=    0.000
 RMSDP=2.85D-05 MaxDP=3.26D-03 DE=-2.47D-07 OVMax= 5.92D-04

 Cycle  14  Pass 1  IDiag  1:
 E= -1136.09234517320     Delta-E=       -0.000000030182 Rises=F Damp=F
 DIIS: error= 2.13D-06 at cycle  14 NSaved=  14.
 NSaved=14 IEnMin=14 EnMin= -1136.09234517320     IErMin=14 ErrMin= 2.13D-06
 ErrMax= 2.13D-06  0.00D+00 EMaxC= 1.00D-01 BMatC= 7.92D-10 BMatP= 2.84D-09
 IDIUse=1 WtCom= 1.00D+00 WtEn= 0.00D+00
 Coeff-Com:  0.492D-04-0.626D-04 0.116D-03 0.954D-04-0.605D-03-0.674D-02
 Coeff-Com: -0.138D-01-0.744D-02 0.652D-01 0.918D-01-0.340D-01-0.401D+00
 Coeff-Com:  0.401D-01 0.127D+01
 Coeff:      0.492D-04-0.626D-04 0.116D-03 0.954D-04-0.605D-03-0.674D-02
 Coeff:     -0.138D-01-0.744D-02 0.652D-01 0.918D-01-0.340D-01-0.401D+00
 Coeff:      0.401D-01 0.127D+01
 Gap=     0.036 Goal=   None    Shift=    0.000
 Gap=     0.044 Goal=   None    Shift=    0.000
 RMSDP=1.75D-05 MaxDP=2.05D-03 DE=-3.02D-08 OVMax= 3.60D-04

 Cycle  15  Pass 1  IDiag  1:
 E= -1136.09234518441     Delta-E=       -0.000000011214 Rises=F Damp=F
 DIIS: error= 1.03D-06 at cycle  15 NSaved=  15.
 NSaved=15 IEnMin=15 EnMin= -1136.09234518441     IErMin=15 ErrMin= 1.03D-06
 ErrMax= 1.03D-06  0.00D+00 EMaxC= 1.00D-01 BMatC= 2.06D-10 BMatP= 7.92D-10
 IDIUse=1 WtCom= 1.00D+00 WtEn= 0.00D+00
 Coeff-Com: -0.275D-04 0.369D-04 0.935D-04 0.606D-04 0.418D-03 0.210D-02
 Coeff-Com: -0.106D-02-0.923D-02-0.197D-01 0.134D-01 0.104D+00-0.112D+00
 Coeff-Com: -0.249D+00-0.138D+00 0.141D+01
 Coeff:     -0.275D-04 0.369D-04 0.935D-04 0.606D-04 0.418D-03 0.210D-02
 Coeff:     -0.106D-02-0.923D-02-0.197D-01 0.134D-01 0.104D+00-0.112D+00
 Coeff:     -0.249D+00-0.138D+00 0.141D+01
 Gap=     0.036 Goal=   None    Shift=    0.000
 Gap=     0.044 Goal=   None    Shift=    0.000
 RMSDP=1.00D-05 MaxDP=9.63D-04 DE=-1.12D-08 OVMax= 2.34D-04

 Cycle  16  Pass 1  IDiag  1:
 E= -1136.09234518793     Delta-E=       -0.000000003516 Rises=F Damp=F
 DIIS: error= 4.09D-07 at cycle  16 NSaved=  16.
 NSaved=16 IEnMin=16 EnMin= -1136.09234518793     IErMin=16 ErrMin= 4.09D-07
 ErrMax= 4.09D-07  0.00D+00 EMaxC= 1.00D-01 BMatC= 3.65D-11 BMatP= 2.06D-10
 IDIUse=1 WtCom= 1.00D+00 WtEn= 0.00D+00
 Coeff-Com: -0.101D-04 0.130D-04-0.219D-04-0.804D-05 0.129D-03 0.149D-02
 Coeff-Com:  0.316D-02 0.156D-02-0.135D-01-0.208D-01 0.266D-02 0.977D-01
 Coeff-Com: -0.195D-01-0.257D+00-0.342D-01 0.124D+01
 Coeff:     -0.101D-04 0.130D-04-0.219D-04-0.804D-05 0.129D-03 0.149D-02
 Coeff:      0.316D-02 0.156D-02-0.135D-01-0.208D-01 0.266D-02 0.977D-01
 Coeff:     -0.195D-01-0.257D+00-0.342D-01 0.124D+01
 Gap=     0.036 Goal=   None    Shift=    0.000
 Gap=     0.044 Goal=   None    Shift=    0.000
 RMSDP=4.20D-06 MaxDP=3.18D-04 DE=-3.52D-09 OVMax= 8.61D-05

 Cycle  17  Pass 1  IDiag  1:
 E= -1136.09234518843     Delta-E=       -0.000000000506 Rises=F Damp=F
 DIIS: error= 1.67D-07 at cycle  17 NSaved=  17.
 NSaved=17 IEnMin=17 EnMin= -1136.09234518843     IErMin=17 ErrMin= 1.67D-07
 ErrMax= 1.67D-07  0.00D+00 EMaxC= 1.00D-01 BMatC= 8.05D-12 BMatP= 3.65D-11
 IDIUse=1 WtCom= 1.00D+00 WtEn= 0.00D+00
 Coeff-Com:  0.659D-05-0.894D-05-0.136D-04-0.716D-05-0.673D-04-0.350D-03
 Coeff-Com:  0.854D-05 0.161D-02 0.345D-02-0.189D-02-0.208D-01 0.279D-01
 Coeff-Com:  0.442D-01 0.441D-02-0.277D+00 0.168D+00 0.105D+01
 Coeff:      0.659D-05-0.894D-05-0.136D-04-0.716D-05-0.673D-04-0.350D-03
 Coeff:      0.854D-05 0.161D-02 0.345D-02-0.189D-02-0.208D-01 0.279D-01
 Coeff:      0.442D-01 0.441D-02-0.277D+00 0.168D+00 0.105D+01
 Gap=     0.036 Goal=   None    Shift=    0.000
 Gap=     0.044 Goal=   None    Shift=    0.000
 RMSDP=1.77D-06 MaxDP=1.40D-04 DE=-5.06D-10 OVMax= 2.61D-05

 Cycle  18  Pass 1  IDiag  1:
 E= -1136.09234518852     Delta-E=       -0.000000000087 Rises=F Damp=F
 DIIS: error= 6.58D-08 at cycle  18 NSaved=  18.
 NSaved=18 IEnMin=18 EnMin= -1136.09234518852     IErMin=18 ErrMin= 6.58D-08
 ErrMax= 6.58D-08  0.00D+00 EMaxC= 1.00D-01 BMatC= 1.73D-12 BMatP= 8.05D-12
 IDIUse=1 WtCom= 1.00D+00 WtEn= 0.00D+00
 Coeff-Com:  0.113D-05-0.144D-05 0.142D-05-0.410D-05-0.206D-04-0.188D-03
 Coeff-Com: -0.458D-03-0.375D-03 0.172D-02 0.349D-02 0.833D-03-0.176D-01
 Coeff-Com:  0.486D-02 0.423D-01 0.185D-01-0.296D+00 0.923D-01 0.115D+01
 Coeff:      0.113D-05-0.144D-05 0.142D-05-0.410D-05-0.206D-04-0.188D-03
 Coeff:     -0.458D-03-0.375D-03 0.172D-02 0.349D-02 0.833D-03-0.176D-01
 Coeff:      0.486D-02 0.423D-01 0.185D-01-0.296D+00 0.923D-01 0.115D+01
 Gap=     0.036 Goal=   None    Shift=    0.000
 Gap=     0.044 Goal=   None    Shift=    0.000
 RMSDP=8.88D-07 MaxDP=7.94D-05 DE=-8.69D-11 OVMax= 1.24D-05

 Cycle  19  Pass 1  IDiag  1:
 E= -1136.09234518853     Delta-E=       -0.000000000005 Rises=F Damp=F
 DIIS: error= 2.87D-08 at cycle  19 NSaved=  19.
 NSaved=19 IEnMin=19 EnMin= -1136.09234518853     IErMin=19 ErrMin= 2.87D-08
 ErrMax= 2.87D-08  0.00D+00 EMaxC= 1.00D-01 BMatC= 3.30D-13 BMatP= 1.73D-12
 IDIUse=1 WtCom= 1.00D+00 WtEn= 0.00D+00
 Coeff-Com: -0.143D-05 0.191D-05 0.222D-05 0.225D-05 0.195D-04 0.983D-04
 Coeff-Com:  0.696D-04-0.293D-03-0.108D-02-0.127D-03 0.458D-02-0.358D-02
 Coeff-Com: -0.110D-01-0.159D-02 0.464D-01 0.141D-01-0.227D+00-0.163D+00
 Coeff-Com:  0.134D+01
 Coeff:     -0.143D-05 0.191D-05 0.222D-05 0.225D-05 0.195D-04 0.983D-04
 Coeff:      0.696D-04-0.293D-03-0.108D-02-0.127D-03 0.458D-02-0.358D-02
 Coeff:     -0.110D-01-0.159D-02 0.464D-01 0.141D-01-0.227D+00-0.163D+00
 Coeff:      0.134D+01
 Gap=     0.036 Goal=   None    Shift=    0.000
 Gap=     0.044 Goal=   None    Shift=    0.000
 RMSDP=3.65D-07 MaxDP=3.46D-05 DE=-5.23D-12 OVMax= 5.26D-06

 Cycle  20  Pass 1  IDiag  1:
 E= -1136.09234518853     Delta-E=       -0.000000000000 Rises=F Damp=F
 DIIS: error= 1.95D-08 at cycle  20 NSaved=  20.
 NSaved=20 IEnMin=20 EnMin= -1136.09234518853     IErMin=20 ErrMin= 1.95D-08
 ErrMax= 1.95D-08  0.00D+00 EMaxC= 1.00D-01 BMatC= 6.00D-14 BMatP= 3.30D-13
 IDIUse=1 WtCom= 1.00D+00 WtEn= 0.00D+00
 Coeff-Com: -0.226D-06 0.305D-06 0.927D-06 0.191D-05 0.601D-05 0.258D-04
 Coeff-Com:  0.698D-04-0.229D-04-0.267D-03-0.447D-03 0.241D-03 0.231D-02
 Coeff-Com: -0.206D-02-0.770D-02 0.159D-02 0.569D-01-0.302D-01-0.259D+00
 Coeff-Com:  0.125D+00 0.111D+01
 Coeff:     -0.226D-06 0.305D-06 0.927D-06 0.191D-05 0.601D-05 0.258D-04
 Coeff:      0.698D-04-0.229D-04-0.267D-03-0.447D-03 0.241D-03 0.231D-02
 Coeff:     -0.206D-02-0.770D-02 0.159D-02 0.569D-01-0.302D-01-0.259D+00
 Coeff:      0.125D+00 0.111D+01
 Gap=     0.036 Goal=   None    Shift=    0.000
 Gap=     0.044 Goal=   None    Shift=    0.000
 RMSDP=1.48D-07 MaxDP=1.42D-05 DE=-4.55D-13 OVMax= 2.21D-06

 Cycle  21  Pass 1  IDiag  1:
 E= -1136.09234518853     Delta-E=       -0.000000000002 Rises=F Damp=F
 DIIS: error= 3.68D-09 at cycle  21 NSaved=  20.
 NSaved=20 IEnMin=20 EnMin= -1136.09234518853     IErMin=20 ErrMin= 3.68D-09
 ErrMax= 3.68D-09  0.00D+00 EMaxC= 1.00D-01 BMatC= 7.21D-15 BMatP= 6.00D-14
 IDIUse=1 WtCom= 1.00D+00 WtEn= 0.00D+00
 Coeff-Com: -0.788D-08-0.376D-06-0.216D-06-0.580D-06 0.192D-05-0.208D-04
 Coeff-Com:  0.660D-05 0.131D-03 0.443D-04-0.528D-03 0.526D-03 0.151D-02
 Coeff-Com:  0.521D-04-0.604D-02-0.348D-02 0.286D-01 0.431D-01-0.191D+00
 Coeff-Com: -0.872D-01 0.121D+01
 Coeff:     -0.788D-08-0.376D-06-0.216D-06-0.580D-06 0.192D-05-0.208D-04
 Coeff:      0.660D-05 0.131D-03 0.443D-04-0.528D-03 0.526D-03 0.151D-02
 Coeff:      0.521D-04-0.604D-02-0.348D-02 0.286D-01 0.431D-01-0.191D+00
 Coeff:     -0.872D-01 0.121D+01
 Gap=     0.036 Goal=   None    Shift=    0.000
 Gap=     0.044 Goal=   None    Shift=    0.000
 RMSDP=5.69D-08 MaxDP=5.96D-06 DE=-1.82D-12 OVMax= 8.42D-07

 Cycle  22  Pass 1  IDiag  1:
 E= -1136.09234518852     Delta-E=        0.000000000003 Rises=F Damp=F
 DIIS: error= 2.32D-09 at cycle  22 NSaved=  20.
 NSaved=20 IEnMin=19 EnMin= -1136.09234518853     IErMin=20 ErrMin= 2.32D-09
 ErrMax= 2.32D-09  0.00D+00 EMaxC= 1.00D-01 BMatC= 1.83D-15 BMatP= 7.21D-15
 IDIUse=1 WtCom= 1.00D+00 WtEn= 0.00D+00
 Large coefficients: NSaved= 20 BigCof=    0.00 CofMax=   10.00 Det=-2.58D-15
 Inversion failed.  Reducing to 19 matrices.
 Large coefficients: NSaved= 19 BigCof=    0.00 CofMax=   10.00 Det=-2.76D-15
 Inversion failed.  Reducing to 18 matrices.
 Large coefficients: NSaved= 18 BigCof=    0.00 CofMax=   10.00 Det=-2.92D-15
 Inversion failed.  Reducing to 17 matrices.
 Large coefficients: NSaved= 17 BigCof=    0.00 CofMax=   10.00 Det=-2.97D-15
 Inversion failed.  Reducing to 16 matrices.
 Large coefficients: NSaved= 16 BigCof=    0.00 CofMax=   10.00 Det=-3.07D-15
 Inversion failed.  Reducing to 15 matrices.
 Coeff-Com:  0.817D-05 0.107D-04-0.117D-04-0.126D-03 0.190D-03 0.383D-03
 Coeff-Com: -0.549D-04-0.154D-02-0.149D-02 0.892D-02 0.133D-01-0.441D-01
 Coeff-Com: -0.830D-01 0.322D+00 0.785D+00
 Coeff:      0.817D-05 0.107D-04-0.117D-04-0.126D-03 0.190D-03 0.383D-03
 Coeff:     -0.549D-04-0.154D-02-0.149D-02 0.892D-02 0.133D-01-0.441D-01
 Coeff:     -0.830D-01 0.322D+00 0.785D+00
 Gap=     0.036 Goal=   None    Shift=    0.000
 Gap=     0.044 Goal=   None    Shift=    0.000
 RMSDP=1.28D-08 MaxDP=1.02D-06 DE= 3.41D-12 OVMax= 1.81D-07

 Cycle  23  Pass 1  IDiag  1:
 E= -1136.09234518853     Delta-E=       -0.000000000010 Rises=F Damp=F
 DIIS: error= 1.07D-09 at cycle  23 NSaved=  16.
 NSaved=16 IEnMin=16 EnMin= -1136.09234518853     IErMin=16 ErrMin= 1.07D-09
 ErrMax= 1.07D-09  0.00D+00 EMaxC= 1.00D-01 BMatC= 5.58D-16 BMatP= 1.83D-15
 IDIUse=1 WtCom= 1.00D+00 WtEn= 0.00D+00
 Large coefficients: NSaved= 16 BigCof=    0.00 CofMax=   10.00 Det=-1.51D-15
 Inversion failed.  Reducing to 15 matrices.
 Coeff-Com: -0.751D-06-0.305D-05-0.199D-04 0.133D-04 0.550D-04 0.121D-03
 Coeff-Com: -0.202D-03-0.172D-02 0.179D-02 0.109D-01-0.437D-03-0.751D-01
 Coeff-Com: -0.101D-01 0.216D+00 0.859D+00
 Coeff:     -0.751D-06-0.305D-05-0.199D-04 0.133D-04 0.550D-04 0.121D-03
 Coeff:     -0.202D-03-0.172D-02 0.179D-02 0.109D-01-0.437D-03-0.751D-01
 Coeff:     -0.101D-01 0.216D+00 0.859D+00
 Gap=     0.036 Goal=   None    Shift=    0.000
 Gap=     0.044 Goal=   None    Shift=    0.000
 RMSDP=1.97D-08 MaxDP=2.70D-06 DE=-9.78D-12 OVMax= 1.41D-07

 Cycle  24  Pass 1  IDiag  1:
 E= -1136.09234518853     Delta-E=        0.000000000003 Rises=F Damp=F
 DIIS: error= 6.60D-10 at cycle  24 NSaved=  16.
 NSaved=16 IEnMin=15 EnMin= -1136.09234518853     IErMin=16 ErrMin= 6.60D-10
 ErrMax= 6.60D-10  0.00D+00 EMaxC= 1.00D-01 BMatC= 2.08D-16 BMatP= 5.58D-16
 IDIUse=1 WtCom= 1.00D+00 WtEn= 0.00D+00
 Large coefficients: NSaved= 16 BigCof=    0.00 CofMax=   10.00 Det=-4.58D-16
 Inversion failed.  Reducing to 15 matrices.
 Coeff-Com:  0.436D-05 0.377D-04-0.829D-04-0.167D-03 0.163D-03 0.637D-03
 Coeff-Com: -0.203D-03-0.364D-02-0.258D-02 0.255D-01-0.380D-02-0.124D+00
 Coeff-Com: -0.131D+00 0.310D+00 0.930D+00
 Coeff:      0.436D-05 0.377D-04-0.829D-04-0.167D-03 0.163D-03 0.637D-03
 Coeff:     -0.203D-03-0.364D-02-0.258D-02 0.255D-01-0.380D-02-0.124D+00
 Coeff:     -0.131D+00 0.310D+00 0.930D+00
 Gap=     0.036 Goal=   None    Shift=    0.000
 Gap=     0.044 Goal=   None    Shift=    0.000
 RMSDP=9.61D-09 MaxDP=1.04D-06 DE= 2.73D-12 OVMax= 9.22D-08

 Cycle  25  Pass 1  IDiag  1:
 E= -1136.09234518853     Delta-E=       -0.000000000000 Rises=F Damp=F
 DIIS: error= 4.75D-10 at cycle  25 NSaved=  16.
 NSaved=16 IEnMin=14 EnMin= -1136.09234518853     IErMin=16 ErrMin= 4.75D-10
 ErrMax= 4.75D-10  0.00D+00 EMaxC= 1.00D-01 BMatC= 8.23D-17 BMatP= 2.08D-16
 IDIUse=1 WtCom= 1.00D+00 WtEn= 0.00D+00
 Large coefficients: NSaved= 16 BigCof=    0.00 CofMax=   10.00 Det=-1.21D-16
 Inversion failed.  Reducing to 15 matrices.
 Coeff-Com: -0.168D-05 0.199D-04-0.190D-04-0.553D-04-0.648D-04 0.915D-03
 Coeff-Com: -0.789D-03-0.411D-02 0.375D-02 0.179D-01-0.531D-02-0.146D+00
 Coeff-Com: -0.180D+00 0.380D+00 0.935D+00
 Coeff:     -0.168D-05 0.199D-04-0.190D-04-0.553D-04-0.648D-04 0.915D-03
 Coeff:     -0.789D-03-0.411D-02 0.375D-02 0.179D-01-0.531D-02-0.146D+00
 Coeff:     -0.180D+00 0.380D+00 0.935D+00
 Gap=     0.036 Goal=   None    Shift=    0.000
 Gap=     0.044 Goal=   None    Shift=    0.000
 RMSDP=1.31D-08 MaxDP=1.66D-06 DE=-4.55D-13 OVMax= 6.27D-08

 Cycle  26  Pass 1  IDiag  1:
 E= -1136.09234518853     Delta-E=        0.000000000002 Rises=F Damp=F
 DIIS: error= 1.95D-10 at cycle  26 NSaved=  16.
 NSaved=16 IEnMin=13 EnMin= -1136.09234518853     IErMin=16 ErrMin= 1.95D-10
 ErrMax= 1.95D-10  0.00D+00 EMaxC= 1.00D-01 BMatC= 1.86D-17 BMatP= 8.23D-17
 IDIUse=1 WtCom= 1.00D+00 WtEn= 0.00D+00
 Large coefficients: NSaved= 16 BigCof=    0.00 CofMax=   10.00 Det=-3.79D-17
 Inversion failed.  Reducing to 15 matrices.
 Coeff-Com:  0.178D-05 0.632D-05-0.215D-04-0.687D-05 0.127D-03 0.845D-04
 Coeff-Com: -0.832D-03-0.131D-02 0.563D-02 0.194D-01-0.493D-01-0.165D+00
 Coeff-Com:  0.489D-01 0.404D+00 0.739D+00
 Coeff:      0.178D-05 0.632D-05-0.215D-04-0.687D-05 0.127D-03 0.845D-04
 Coeff:     -0.832D-03-0.131D-02 0.563D-02 0.194D-01-0.493D-01-0.165D+00
 Coeff:      0.489D-01 0.404D+00 0.739D+00
 Gap=     0.036 Goal=   None    Shift=    0.000
 Gap=     0.044 Goal=   None    Shift=    0.000
 RMSDP=5.76D-09 MaxDP=4.71D-07 DE= 1.59D-12 OVMax= 3.59D-08

 SCF Done:  E(UB3LYP) =  -1136.09234519     A.U. after   26 cycles
            NFock= 26  Conv=0.58D-08     -V/T= 2.0026
 <Sx>= 0.0000 <Sy>= 0.0000 <Sz>= 0.5000 <S**2>= 0.7684 S= 0.5092
 <L.S>= 0.000000000000E+00
 KE= 1.133148699409D+03 PE=-3.421086454316D+03 EE= 8.059166890268D+02
 Annihilation of the first spin contaminant:
 S**2 before annihilation     0.7684,   after     0.7502
 Leave Link  502 at Mon Nov 13 17:32:07 2023, MaxMem=  1879048192 cpu:             250.5 elap:              21.7
 (Enter /home/sekinelabo/g16/l601.exe)
 Copying SCF densities to generalized density rwf, IOpCl= 1 IROHF=0.

 **********************************************************************

            Population analysis using the SCF Density.

 **********************************************************************

 Orbital symmetries:
 Alpha Orbitals:
       Occupied  (A) (A) (A) (A) (A) (A) (A) (A) (A) (A) (A) (A)
                 (A) (A) (A) (A) (A) (A) (A) (A) (A) (A) (A) (A)
                 (A) (A) (A) (A) (A) (A) (A) (A) (A) (A) (A) (A)
                 (A) (A) (A)
       Virtual   (A) (A) (A) (A) (A) (A) (A) (A) (A) (A) (A) (A)
                 (A) (A) (A) (A) (A) (A) (A) (A) (A) (A) (A) (A)
                 (A) (A) (A) (A) (A) (A) (A) (A) (A) (A) (A) (A)
                 (A) (A) (A) (A) (A) (A) (A) (A) (A) (A) (A) (A)
                 (A) (A) (A) (A) (A) (A) (A) (A) (A) (A) (A) (A)
                 (A) (A) (A) (A) (A) (A) (A) (A) (A) (A) (A) (A)
                 (A) (A) (A) (A) (A) (A) (A) (A) (A) (A) (A) (A)
                 (A) (A) (A) (A) (A) (A) (A) (A) (A) (A) (A) (A)
                 (A) (A) (A) (A) (A) (A) (A) (A) (A) (A) (A) (A)
                 (A) (A) (A) (A) (A) (A) (A) (A) (A) (A) (A) (A)
                 (A) (A) (A) (A) (A) (A) (A) (A) (A) (A) (A) (A)
                 (A) (A) (A) (A) (A) (A) (A) (A) (A) (A) (A) (A)
                 (A) (A) (A) (A) (A) (A) (A) (A) (A) (A) (A) (A)
                 (A) (A) (A) (A) (A) (A) (A) (A) (A) (A) (A) (A)
                 (A) (A) (A)
 Beta  Orbitals:
       Occupied  (A) (A) (A) (A) (A) (A) (A) (A) (A) (A) (A) (A)
                 (A) (A) (A) (A) (A) (A) (A) (A) (A) (A) (A) (A)
                 (A) (A) (A) (A) (A) (A) (A) (A) (A) (A) (A) (A)
                 (A) (A)
       Virtual   (A) (A) (A) (A) (A) (A) (A) (A) (A) (A) (A) (A)
                 (A) (A) (A) (A) (A) (A) (A) (A) (A) (A) (A) (A)
                 (A) (A) (A) (A) (A) (A) (A) (A) (A) (A) (A) (A)
                 (A) (A) (A) (A) (A) (A) (A) (A) (A) (A) (A) (A)
                 (A) (A) (A) (A) (A) (A) (A) (A) (A) (A) (A) (A)
                 (A) (A) (A) (A) (A) (A) (A) (A) (A) (A) (A) (A)
                 (A) (A) (A) (A) (A) (A) (A) (A) (A) (A) (A) (A)
                 (A) (A) (A) (A) (A) (A) (A) (A) (A) (A) (A) (A)
                 (A) (A) (A) (A) (A) (A) (A) (A) (A) (A) (A) (A)
                 (A) (A) (A) (A) (A) (A) (A) (A) (A) (A) (A) (A)
                 (A) (A) (A) (A) (A) (A) (A) (A) (A) (A) (A) (A)
                 (A) (A) (A) (A) (A) (A) (A) (A) (A) (A) (A) (A)
                 (A) (A) (A) (A) (A) (A) (A) (A) (A) (A) (A) (A)
                 (A) (A) (A) (A) (A) (A) (A) (A) (A) (A) (A) (A)
                 (A) (A) (A) (A)
 The electronic state is 2-A.
 Alpha  occ. eigenvalues --  -38.45696 -38.45104 -38.44386 -38.44351 -38.43550
 Alpha  occ. eigenvalues --  -38.43104 -38.42555  -2.21665  -2.20906  -2.20415
 Alpha  occ. eigenvalues --   -2.20386  -2.19521  -2.18904  -2.18735  -1.15390
 Alpha  occ. eigenvalues --   -1.15316  -1.15307  -1.14597  -1.14533  -1.14530
 Alpha  occ. eigenvalues --   -1.14232  -1.14145  -1.14041  -1.14016  -1.14003
 Alpha  occ. eigenvalues --   -1.13922  -1.13267  -1.13149  -1.13138  -1.12657
 Alpha  occ. eigenvalues --   -1.12554  -1.12541  -1.12406  -1.12398  -1.12314
 Alpha  occ. eigenvalues --   -0.19456  -0.14033  -0.11540  -0.10802
 Alpha virt. eigenvalues --   -0.07222  -0.05240  -0.04206  -0.03309  -0.02523
 Alpha virt. eigenvalues --   -0.02210  -0.01914  -0.00944  -0.00718   0.00001
 Alpha virt. eigenvalues --    0.00048   0.00135   0.00339   0.00596   0.00724
 Alpha virt. eigenvalues --    0.00909   0.00934   0.01165   0.01228   0.01405
 Alpha virt. eigenvalues --    0.01432   0.01710   0.01750   0.01855   0.02002
 Alpha virt. eigenvalues --    0.02124   0.02374   0.02397   0.02538   0.02646
 Alpha virt. eigenvalues --    0.02698   0.02757   0.02833   0.02892   0.03066
 Alpha virt. eigenvalues --    0.03103   0.03202   0.03467   0.03528   0.03660
 Alpha virt. eigenvalues --    0.03824   0.04360   0.04556   0.04705   0.04949
 Alpha virt. eigenvalues --    0.05209   0.05482   0.05597   0.05992   0.06041
 Alpha virt. eigenvalues --    0.06209   0.06651   0.06844   0.07312   0.07470
 Alpha virt. eigenvalues --    0.07677   0.07822   0.08176   0.08573   0.08949
 Alpha virt. eigenvalues --    0.09233   0.09476   0.09714   0.10037   0.11506
 Alpha virt. eigenvalues --    0.12039   0.12191   0.12789   0.12945   0.13415
 Alpha virt. eigenvalues --    0.14182   0.14277   0.14340   0.14747   0.14972
 Alpha virt. eigenvalues --    0.15772   0.16146   0.16379   0.17086   0.19763
 Alpha virt. eigenvalues --    0.24297   0.26884   0.27643   0.28799   0.29271
 Alpha virt. eigenvalues --    0.30688   0.31819   0.32553   0.32751   0.34379
 Alpha virt. eigenvalues --    0.35013   0.35536   0.36321   0.36673   0.37057
 Alpha virt. eigenvalues --    0.37157   0.38568   0.39976   0.40713   0.41142
 Alpha virt. eigenvalues --    0.42441   0.43239   0.43411   0.43986   0.44270
 Alpha virt. eigenvalues --    0.44416   0.44855   0.45050   0.45757   0.46273
 Alpha virt. eigenvalues --    0.46779   0.46966   0.47636   0.48193   0.48993
 Alpha virt. eigenvalues --    0.49702   0.50161   0.50660   0.51644   0.52673
 Alpha virt. eigenvalues --    0.53610   0.53717   0.54649   0.55836   0.56916
 Alpha virt. eigenvalues --    0.60163   0.62597   0.66063   0.68937   0.69511
 Alpha virt. eigenvalues --    0.71486   0.72142   0.72869   0.74736   0.78779
 Alpha virt. eigenvalues --    0.83096   2.09276   2.12259   2.14423   2.19687
 Alpha virt. eigenvalues --    2.23023   2.27622   2.33306   4.40583   4.41129
 Alpha virt. eigenvalues --    4.41934   4.42355   4.42901   4.43339   4.44403
 Alpha virt. eigenvalues --    4.44820   4.45886   4.47039   4.47349   4.48908
 Alpha virt. eigenvalues --    4.55669   4.55843   4.59338   4.62510   4.66490
 Alpha virt. eigenvalues --    4.68791   4.73916   4.77792   4.82828  96.30317
 Alpha virt. eigenvalues --   96.33703  96.36695  96.44416  96.49221  96.55070
 Alpha virt. eigenvalues --   96.61995
  Beta  occ. eigenvalues --  -38.45684 -38.45063 -38.44327 -38.44308 -38.43530
  Beta  occ. eigenvalues --  -38.43111 -38.42518  -2.21649  -2.20826  -2.20379
  Beta  occ. eigenvalues --   -2.20245  -2.19490  -2.18917  -2.18676  -1.15387
  Beta  occ. eigenvalues --   -1.15309  -1.15243  -1.14546  -1.14479  -1.14476
  Beta  occ. eigenvalues --   -1.14189  -1.14086  -1.13983  -1.13943  -1.13907
  Beta  occ. eigenvalues --   -1.13832  -1.13229  -1.13124  -1.13097  -1.12657
  Beta  occ. eigenvalues --   -1.12560  -1.12550  -1.12375  -1.12350  -1.12237
  Beta  occ. eigenvalues --   -0.18676  -0.13670  -0.11415
  Beta virt. eigenvalues --   -0.07047  -0.06730  -0.05142  -0.03626  -0.03231
  Beta virt. eigenvalues --   -0.02391  -0.01556  -0.01434  -0.00812  -0.00284
  Beta virt. eigenvalues --    0.00085   0.00144   0.00198   0.00521   0.00632
  Beta virt. eigenvalues --    0.00818   0.00980   0.01003   0.01202   0.01366
  Beta virt. eigenvalues --    0.01472   0.01573   0.01775   0.01814   0.01923
  Beta virt. eigenvalues --    0.02120   0.02270   0.02426   0.02482   0.02604
  Beta virt. eigenvalues --    0.02648   0.02717   0.02841   0.02909   0.02967
  Beta virt. eigenvalues --    0.03128   0.03153   0.03282   0.03544   0.03594
  Beta virt. eigenvalues --    0.03746   0.03890   0.04448   0.04723   0.04766
  Beta virt. eigenvalues --    0.05081   0.05388   0.05523   0.05711   0.06038
  Beta virt. eigenvalues --    0.06139   0.06295   0.06785   0.06975   0.07392
  Beta virt. eigenvalues --    0.07579   0.07847   0.08003   0.08300   0.08787
  Beta virt. eigenvalues --    0.09104   0.09319   0.09605   0.09940   0.10219
  Beta virt. eigenvalues --    0.11751   0.12257   0.12463   0.12953   0.13161
  Beta virt. eigenvalues --    0.13712   0.14344   0.14444   0.14547   0.15020
  Beta virt. eigenvalues --    0.15050   0.16030   0.16372   0.16542   0.17239
  Beta virt. eigenvalues --    0.19986   0.24580   0.27127   0.28009   0.29253
  Beta virt. eigenvalues --    0.29521   0.30887   0.32033   0.32846   0.33109
  Beta virt. eigenvalues --    0.34594   0.35285   0.35877   0.36559   0.36792
  Beta virt. eigenvalues --    0.37322   0.37352   0.38861   0.40424   0.40844
  Beta virt. eigenvalues --    0.41332   0.42655   0.43461   0.43584   0.44112
  Beta virt. eigenvalues --    0.44415   0.44585   0.45006   0.45201   0.45977
  Beta virt. eigenvalues --    0.46292   0.46936   0.47129   0.47836   0.48332
  Beta virt. eigenvalues --    0.49120   0.49832   0.50371   0.50847   0.51856
  Beta virt. eigenvalues --    0.52861   0.53619   0.53875   0.54857   0.55953
  Beta virt. eigenvalues --    0.57189   0.60340   0.62768   0.66170   0.68996
  Beta virt. eigenvalues --    0.69754   0.71657   0.72279   0.72962   0.74788
  Beta virt. eigenvalues --    0.78936   0.83125   2.09439   2.12294   2.14497
  Beta virt. eigenvalues --    2.19780   2.23250   2.27680   2.33426   4.40630
  Beta virt. eigenvalues --    4.41192   4.42027   4.42426   4.42940   4.43382
  Beta virt. eigenvalues --    4.44484   4.44887   4.45951   4.47036   4.47360
  Beta virt. eigenvalues --    4.48941   4.55739   4.55928   4.59379   4.62549
  Beta virt. eigenvalues --    4.66530   4.68852   4.73961   4.77833   4.82874
  Beta virt. eigenvalues --   96.30370  96.33720  96.36717  96.44449  96.49289
  Beta virt. eigenvalues --   96.55096  96.62036
          Condensed to atoms (all electrons):
               1          2          3          4          5          6
     1  Na  13.045576   1.348578   0.164553  -0.496929  -0.061075  -2.849473
     2  Na   1.348578  14.103804   0.183368  -0.851975  -1.353592  -4.177948
     3  Na   0.164553   0.183368  10.910673  -0.431799   0.767919  -0.690648
     4  Na  -0.496929  -0.851975  -0.431799  11.610845  -1.302711   1.940321
     5  Na  -0.061075  -1.353592   0.767919  -1.302711  18.296215  -3.439088
     6  Na  -2.849473  -4.177948  -0.690648   1.940321  -3.439088  21.416728
     7  Na  -0.180644   0.867773   0.230912  -0.227875   0.502619  -2.353242
               7
     1  Na  -0.180644
     2  Na   0.867773
     3  Na   0.230912
     4  Na  -0.227875
     5  Na   0.502619
     6  Na  -2.353242
     7  Na  12.438070
          Atomic-Atomic Spin Densities.
               1          2          3          4          5          6
     1  Na   0.942603   0.390008   0.148135  -0.200077  -0.225701  -0.740104
     2  Na   0.390008   2.284601   0.193974  -0.679926  -1.013019  -2.085775
     3  Na   0.148135   0.193974   0.194845  -0.166888  -0.082841  -0.162309
     4  Na  -0.200077  -0.679926  -0.166888   0.468474  -0.078311   0.878106
     5  Na  -0.225701  -1.013019  -0.082841  -0.078311   1.230147   0.603528
     6  Na  -0.740104  -2.085775  -0.162309   0.878106   0.603528   2.406022
     7  Na   0.096119   0.792257   0.084718  -0.384550   0.085301  -1.024630
               7
     1  Na   0.096119
     2  Na   0.792257
     3  Na   0.084718
     4  Na  -0.384550
     5  Na   0.085301
     6  Na  -1.024630
     7  Na   0.617278
 Mulliken charges and spin densities:
               1          2
     1  Na   0.029414   0.410982
     2  Na   0.879993  -0.117880
     3  Na  -0.134979   0.209634
     4  Na   0.760124  -0.163172
     5  Na  -2.410288   0.519104
     6  Na   1.153350  -0.125161
     7  Na  -0.277613   0.266493
 Sum of Mulliken charges =  -0.00000   1.00000
 Mulliken charges and spin densities with hydrogens summed into heavy atoms:
               1          2
     1  Na   0.029414   0.410982
     2  Na   0.879993  -0.117880
     3  Na  -0.134979   0.209634
     4  Na   0.760124  -0.163172
     5  Na  -2.410288   0.519104
     6  Na   1.153350  -0.125161
     7  Na  -0.277613   0.266493
 Electronic spatial extent (au):  <R**2>=           2488.2271
 Charge=             -0.0000 electrons
 Dipole moment (field-independent basis, Debye):
    X=              0.5663    Y=             -0.5607    Z=              0.2555  Tot=              0.8369
 Quadrupole moment (field-independent basis, Debye-Ang):
   XX=            -50.5255   YY=            -73.4744   ZZ=            -69.0563
   XY=             -2.2816   XZ=             -6.1267   YZ=              0.6686
 Traceless Quadrupole moment (field-independent basis, Debye-Ang):
   XX=             13.8266   YY=             -9.1223   ZZ=             -4.7043
   XY=             -2.2816   XZ=             -6.1267   YZ=              0.6686
 Octapole moment (field-independent basis, Debye-Ang**2):
  XXX=              5.7330  YYY=              8.1313  ZZZ=              2.3590  XYY=             -8.8020
  XXY=             -1.5545  XXZ=             -7.1534  XZZ=              5.3594  YZZ=             -4.1668
  YYZ=              4.0637  XYZ=              4.1335
 Hexadecapole moment (field-independent basis, Debye-Ang**3):
 XXXX=          -1828.9534 YYYY=          -1396.3404 ZZZZ=           -684.0067 XXXY=             27.8301
 XXXZ=           -196.3803 YYYX=           -103.6865 YYYZ=             -1.3438 ZZZX=             -4.4483
 ZZZY=             16.4167 XXYY=           -625.7769 XXZZ=           -432.2848 YYZZ=           -378.3431
 XXYZ=              3.7778 YYXZ=             -9.9426 ZZXY=             18.3352
 N-N= 3.459287206918D+02 E-N=-3.421086454291D+03  KE= 1.133148699409D+03
                          Isotropic Fermi Contact Couplings
        Atom                 a.u.       MegaHertz       Gauss      10(-4) cm-1
     1  Na(23)            -0.00252      -2.97925      -1.06307      -0.99377
     2  Na(23)            -0.03611     -42.72303     -15.24464     -14.25087
     3  Na(23)             0.18729     221.57267      79.06264      73.90869
     4  Na(23)             0.01330      15.73513       5.61469       5.24867
     5  Na(23)             0.07470      88.37031      31.53272      29.47716
     6  Na(23)            -0.02135     -25.26240      -9.01425      -8.42663
     7  Na(23)             0.33762     399.41576     142.52148     133.23076
 --------------------------------------------------------
       Center         ----  Spin Dipole Couplings  ----
                      3XX-RR        3YY-RR        3ZZ-RR
 --------------------------------------------------------
     1   Atom       -0.047112     -0.038457      0.085569
     2   Atom       -0.001870     -0.000430      0.002300
     3   Atom       -0.002281      0.002192      0.000089
     4   Atom        0.043938     -0.026545     -0.017393
     5   Atom       -0.043040     -0.007169      0.050209
     6   Atom       -0.001525     -0.024825      0.026350
     7   Atom        0.001299      0.008822     -0.010121
 --------------------------------------------------------
                        XY            XZ            YZ
 --------------------------------------------------------
     1   Atom       -0.004067      0.022464     -0.003337
     2   Atom       -0.002216     -0.000946      0.001092
     3   Atom        0.001208      0.003693     -0.000529
     4   Atom        0.010970     -0.033433     -0.003044
     5   Atom        0.003328      0.007865      0.047787
     6   Atom        0.008287      0.037838      0.009216
     7   Atom       -0.003448      0.001421     -0.004918
 --------------------------------------------------------


 ---------------------------------------------------------------------------------
              Anisotropic Spin Dipole Couplings in Principal Axis System
 ---------------------------------------------------------------------------------

       Atom             a.u.   MegaHertz   Gauss  10(-4) cm-1        Axes

              Baa    -0.0517    -7.305    -2.606    -2.437  0.9552  0.2550 -0.1501
     1 Na(23) Bbb    -0.0377    -5.319    -1.898    -1.774 -0.2468  0.9664  0.0712
              Bcc     0.0894    12.623     4.504     4.211  0.1632 -0.0309  0.9861
 
              Baa    -0.0035    -0.492    -0.176    -0.164  0.8130  0.5819  0.0231
     2 Na(23) Bbb     0.0002     0.028     0.010     0.009 -0.4700  0.6790 -0.5639
              Bcc     0.0033     0.464     0.166     0.155 -0.3438  0.4476  0.8255
 
              Baa    -0.0052    -0.734    -0.262    -0.245  0.7995 -0.1719 -0.5756
     3 Na(23) Bbb     0.0023     0.320     0.114     0.107 -0.1556  0.8662 -0.4748
              Bcc     0.0029     0.414     0.148     0.138  0.5802  0.4692  0.6658
 
              Baa    -0.0327    -4.612    -1.646    -1.538  0.4170 -0.3259  0.8484
     4 Na(23) Bbb    -0.0274    -3.876    -1.383    -1.293  0.0200  0.9366  0.3500
              Bcc     0.0601     8.488     3.029     2.831  0.9087  0.1290 -0.3971
 
              Baa    -0.0437    -6.176    -2.204    -2.060  0.9924  0.0544 -0.1108
     5 Na(23) Bbb    -0.0341    -4.818    -1.719    -1.607 -0.1016  0.8695 -0.4833
              Bcc     0.0779    10.994     3.923     3.667  0.0700  0.4908  0.8684
 
              Baa    -0.0289    -4.087    -1.458    -1.363  0.7257 -0.5571 -0.4038
     6 Na(23) Bbb    -0.0257    -3.629    -1.295    -1.211  0.3889  0.8162 -0.4272
              Bcc     0.0546     7.716     2.753     2.574  0.5676  0.1530  0.8090
 
              Baa    -0.0113    -1.602    -0.572    -0.535 -0.0468  0.2291  0.9723
     7 Na(23) Bbb    -0.0000    -0.004    -0.001    -0.001  0.9378  0.3454 -0.0363
              Bcc     0.0114     1.606     0.573     0.536 -0.3441  0.9101 -0.2310
 

 ---------------------------------------------------------------------------------

 No NMR shielding tensors so no spin-rotation constants.
 Leave Link  601 at Mon Nov 13 17:32:08 2023, MaxMem=  1879048192 cpu:               2.6 elap:               0.2
 (Enter /home/sekinelabo/g16/l701.exe)
 ... and contract with generalized density number  0.
 Compute integral first derivatives.
 Leave Link  701 at Mon Nov 13 17:32:08 2023, MaxMem=  1879048192 cpu:               2.3 elap:               0.2
 (Enter /home/sekinelabo/g16/l702.exe)
 L702 exits ... SP integral derivatives will be done elsewhere.
 Leave Link  702 at Mon Nov 13 17:32:08 2023, MaxMem=  1879048192 cpu:               0.4 elap:               0.0
 (Enter /home/sekinelabo/g16/l703.exe)
 Integral derivatives from FoFJK, PRISM(SPDF).
 Compute integral first derivatives, UseDBF=F ICtDFT=           0.
 Calling FoFJK, ICntrl=      2127 FMM=F ISym2X=0 I1Cent= 0 IOpClX= 1 NMat=1 NMatS=1 NMatT=0.
 FoFJK:  IHMeth= 1 ICntrl=    2127 DoSepK=F KAlg= 0 I1Cent=           0 FoldK=F
 IRaf=         0 NMat=       1 IRICut=       1 DoRegI=T DoRafI=F ISym2E= 0 IDoP0=0 IntGTp=1.
 FoFCou: FMM=F IPFlag=           0 FMFlag=      100000 FMFlg1=         800
         NFxFlg=           0 DoJE=F BraDBF=F KetDBF=F FulRan=T
         wScrn=  0.000000 ICntrl=      2127 IOpCl=  1 I1Cent=           0 NGrid=           0
         NMat0=    1 NMatS0=      1 NMatT0=    0 NMatD0=    1 NMtDS0=    0 NMtDT0=    0
 Symmetry not used in FoFCou.
 Leave Link  703 at Mon Nov 13 17:32:10 2023, MaxMem=  1879048192 cpu:              35.2 elap:               2.3
 (Enter /home/sekinelabo/g16/l716.exe)
 Dipole        = 2.22797908D-01-2.20592175D-01 1.00533978D-01
 ***** Axes restored to original set *****
 -------------------------------------------------------------------
 Center     Atomic                   Forces (Hartrees/Bohr)
 Number     Number              X              Y              Z
 -------------------------------------------------------------------
      1       11           0.003146103   -0.016837194   -0.003279096
      2       11           0.001198715    0.001407627   -0.000907628
      3       11          -0.000307192   -0.000283081   -0.003257379
      4       11           0.005515320   -0.001543430    0.008453597
      5       11           0.004034241    0.013220138    0.006065592
      6       11          -0.009609238   -0.002506589    0.008300559
      7       11          -0.003977949    0.006542529   -0.015375645
 -------------------------------------------------------------------
 Cartesian Forces:  Max     0.016837194 RMS     0.007282825
 Z-matrix is all fixed cartesians, so copy forces.
 Force constants in Cartesian coordinates: 
                1             2             3             4             5 
      1  0.101080D+00
      2 -0.101321D-01  0.136100D+00
      3  0.672915D-02  0.181120D-01  0.805253D-01
      4  0.396717D-02  0.190794D-03 -0.226832D-02  0.270501D-01
      5 -0.359529D-02 -0.348440D-03  0.266302D-02  0.675046D-02  0.315509D-01
      6 -0.381740D-02 -0.103825D-02  0.513979D-02 -0.154398D-02 -0.335554D-02
      7 -0.268206D-02  0.443745D-03  0.423625D-02  0.251235D-05 -0.958317D-05
      8 -0.137694D-02  0.210580D-03  0.218482D-02  0.354249D-05 -0.135126D-04
      9 -0.291950D-02  0.483299D-03  0.461113D-02  0.269961D-05 -0.102975D-04
     10 -0.290622D-01  0.632411D-02 -0.972528D-02  0.456641D-02 -0.303798D-02
     11 -0.205360D-01 -0.259186D-01 -0.185112D-01  0.448025D-02 -0.287005D-02
     12 -0.106322D-01 -0.250757D-02 -0.281657D-01 -0.116499D-02  0.111794D-02
     13 -0.243174D-01  0.179866D-02  0.528988D-02 -0.382530D-01  0.231760D-02
     14 -0.711252D-02 -0.511574D-01 -0.142208D-01 -0.236115D-02 -0.335301D-01
     15  0.320759D-02 -0.842640D-02 -0.247740D-01  0.223577D-02  0.136008D-03
     16 -0.315416D-01 -0.235564D-02  0.119283D-01  0.342616D-02 -0.232778D-02
     17  0.295928D-01 -0.218544D-01 -0.214489D-01 -0.630200D-02  0.442733D-02
     18  0.105587D-01 -0.361006D-02 -0.178373D-01  0.142828D-02 -0.396272D-03
     19 -0.174444D-01  0.373039D-02 -0.161900D-01 -0.759351D-03 -0.974273D-04
     20  0.131600D-01 -0.370313D-01  0.312211D-01 -0.276189D-02  0.783903D-03
     21 -0.312641D-02 -0.301304D-02 -0.194993D-01  0.131054D-02 -0.154866D-03
                6             7             8             9            10 
      6  0.153585D-01
      7 -0.379918D-04  0.252907D-01
      8 -0.535697D-04 -0.131100D-02  0.513469D-02
      9 -0.408235D-04 -0.130075D-01 -0.937552D-03  0.229230D-01
     10  0.963643D-03 -0.208354D-01 -0.304038D-03  0.179181D-01  0.853733D-01
     11  0.148399D-02  0.178809D-02 -0.699145D-02  0.148968D-02 -0.375940D-02
     12  0.142368D-02  0.577001D-02  0.356220D-02 -0.309002D-01  0.415716D-02
     13  0.704274D-02 -0.173603D-02  0.297153D-02 -0.195001D-02 -0.335867D-01
     14  0.886314D-02 -0.894038D-03  0.163468D-02 -0.100586D-02 -0.348391D-02
     15 -0.286474D-01  0.295164D-02 -0.472869D-02  0.331040D-02 -0.793314D-02
     16  0.487349D-03 -0.312785D-05  0.976073D-05 -0.358216D-05 -0.550978D-02
     17 -0.187243D-03  0.000000D+00  0.739795D-04 -0.128940D-05  0.285383D-02
     18  0.299853D-02  0.493903D-04  0.297928D-05  0.541121D-04 -0.484802D-02
     19 -0.309435D-02 -0.366062D-04  0.714374D-05 -0.402517D-04 -0.945601D-03
     20 -0.571254D-02 -0.170909D-04 -0.489726D-04 -0.179766D-04  0.140739D-02
     21  0.376771D-02  0.381948D-04 -0.301830D-04  0.423533D-04 -0.532501D-03
               11            12            13            14            15 
     11  0.604825D-01
     12 -0.183510D-02  0.764968D-01
     13  0.144034D-01  0.491672D-02  0.163436D+00
     14 -0.402199D-01 -0.449098D-02  0.662995D-02  0.184639D+00
     15  0.129712D-01 -0.252208D-01  0.326060D-02  0.483801D-02  0.134283D+00
     16  0.378445D-03  0.383833D-02 -0.438807D-01  0.320097D-02  0.138605D-01
     17  0.694505D-02  0.841155D-03 -0.178770D-01 -0.366733D-01  0.126755D-01
     18  0.182332D-02  0.541147D-02 -0.931815D-02 -0.193323D-02 -0.174900D-01
     19  0.324522D-02 -0.688508D-02 -0.216617D-01  0.402070D-02 -0.175830D-01
     20  0.857241D-02  0.331235D-02 -0.102442D-01 -0.246928D-01 -0.174657D-01
     21  0.257810D-02  0.954747D-03 -0.924177D-02  0.794977D-02 -0.414617D-01
               16            17            18            19            20 
     16  0.896798D-01
     17 -0.603152D-03  0.532055D-01
     18 -0.265606D-01 -0.341715D-02  0.691400D-01
     19 -0.121708D-01 -0.766439D-02  0.286904D-01  0.530184D-01
     20  0.169740D-02 -0.612406D-02  0.753041D-02 -0.324163D-02  0.585408D-01
     21 -0.355028D-02  0.115379D-01 -0.422768D-01  0.151022D-01 -0.188677D-01
               21 
     21  0.984730D-01
 Leave Link  716 at Mon Nov 13 17:32:10 2023, MaxMem=  1879048192 cpu:               0.5 elap:               0.0
 (Enter /home/sekinelabo/g16/l103.exe)

 GradGradGradGradGradGradGradGradGradGradGradGradGradGradGradGradGradGrad
 Berny optimization.
 Search for a local minimum.
 Step number   1 out of a maximum of    2
 All quantities printed in internal units (Hartrees-Bohrs-Radians)
 Second derivative matrix not updated -- first step.
 ITU=  0
     Eigenvalues ---    0.00743   0.01106   0.02789   0.03577   0.04105
     Eigenvalues ---    0.04983   0.08718   0.10286   0.13069   0.13541
     Eigenvalues ---    0.15134   0.16528   0.18472   0.20589   0.23233
 Quadratic step=3.308D-01 exceeds max=3.000D-01 adjusted using Lamda=-2.715D-03.
 Angle between NR and scaled steps=   6.51 degrees.
 Angle between quadratic step and forces=  35.60 degrees.
 Linear search not attempted -- first point.
 B after Tr=     0.000000   -0.000000    0.000000
         Rot=    1.000000   -0.000000    0.000000   -0.000000 Ang=   0.00 deg.
 Variable       Old X    -DE/DX   Delta X   Delta X   Delta X     New X
                                 (Linear)    (Quad)   (Total)
    X1        4.37869   0.00315   0.00000   0.02467   0.02467   4.40336
    Y1        0.00000  -0.01684   0.00000  -0.09592  -0.09592  -0.09592
    Z1        2.97814  -0.00328   0.00000   0.01246   0.01246   2.99060
    X2        8.24669   0.00120   0.00000   0.01974   0.01974   8.26643
    Y2        9.97037   0.00141   0.00000   0.11109   0.11109  10.08147
    Z2        3.60298  -0.00091   0.00000   0.02162   0.02162   3.62459
    X3       13.23334  -0.00031   0.00000   0.00027   0.00027  13.23361
    Y3        1.55297  -0.00028   0.00000  -0.07202  -0.07202   1.48095
    Z3        1.94508  -0.00326   0.00000  -0.07552  -0.07552   1.86956
    X4        9.04571   0.00552   0.00000   0.09370   0.09370   9.13941
    Y4        1.61258  -0.00154   0.00000  -0.00413  -0.00413   1.60845
    Z4        5.76401   0.00845   0.00000   0.09880   0.09880   5.86281
    X5        5.01202   0.00403   0.00000   0.00242   0.00242   5.01444
    Y5        5.40569   0.01322   0.00000   0.07134   0.07134   5.47703
    Z5        4.54048   0.00607   0.00000   0.04548   0.04548   4.58597
    X6        0.00000  -0.00961   0.00000  -0.10891  -0.10891  -0.10891
    Y6        2.82900  -0.00251   0.00000  -0.04188  -0.04188   2.78712
    Z6        5.19418   0.00830   0.00000   0.01782   0.01782   5.21200
    X7        1.86218  -0.00398   0.00000  -0.03188  -0.03188   1.83030
    Y7        4.11720   0.00654   0.00000   0.03152   0.03152   4.14873
    Z7        0.00000  -0.01538   0.00000  -0.12066  -0.12066  -0.12066
         Item               Value     Threshold  Converged?
 Maximum Force            0.016837     0.000450     NO 
 RMS     Force            0.007283     0.000300     NO 
 Maximum Displacement     0.120656     0.001800     NO 
 RMS     Displacement     0.065566     0.001200     NO 
 Predicted change in Energy=-4.199171D-03
 GradGradGradGradGradGradGradGradGradGradGradGradGradGradGradGradGradGrad

 Leave Link  103 at Mon Nov 13 17:32:10 2023, MaxMem=  1879048192 cpu:               0.3 elap:               0.0
 (Enter /home/sekinelabo/g16/l9999.exe)
 1\1\GINC-SEKINELABO-XA7R-R37\Force\UB3LYP\6-311+G(d)\Na7(2)\SEKINELABO
 \13-Nov-2023\0\\#P B3LYP/6-311+g(d) force\\Gaussian input prepared by 
 ASE\\0,2\Na,2.3171051884,0.,1.5759650241\Na,4.3639608402,5.2760948944,
 1.9066134315\Na,7.0027817286,0.8217975349,1.0292916861\Na,4.7867857541
 ,0.853338416,3.0501844326\Na,2.6522468087,2.860568306,2.4027202059\Na,
 0.,1.497042813,2.7486426581\Na,0.9854224061,2.178730836,0.\\Version=ES
 64L-G16RevB.01\State=2-A\HF=-1136.0923452\S2=0.768408\S2-1=0.\S2A=0.75
 0211\RMSD=5.764e-09\RMSF=7.283e-03\Dipole=-0.2227979,-0.2205922,-0.100
 534\Quadrupole=10.2797221,-6.7822192,-3.4975029,1.6962825,-4.5550835,-
 0.4970877\PG=C01 [X(Na7)]\\@


 THOUGH I SPEAK WITH THE TONGUES OF MEN AND OF ANGELS, 
 AND HAVE NOT LOVE,
 I AM BECOME AS SOUNDING BRASS, A TINKLING CYMBAL.
 AND THOUGH I HAVE THE GIFT OF PROPHECY,
 AND UNDERSTAND ALL MYSTERIES, AND ALL KNOWLEDGE.
 AND THOUGH I HAVE ALL FAITH, SO THAT I COULD REMOVE MOUNTAINS,
 AND HAVE NOT LOVE, I AM NOTHING.
 AND THOUGH I BESTOW ALL MY GOODS TO FEED THE POOR,
 AND THOUGH I GIVE MY BODY TO BE BURNED,
 AND HAVE NOT LOVE IT PROFITETH ME NOTHING.
 LOVE SUFFERETH LONG, AND IS KIND,
 LOVE ENVIETH NOT,
 LOVE VAUNTETH NOT ITSELF, IS NOT PUFFED UP,
 DOTH NOT BEHAVE ITSELF UNSEEMLY, SEEKETH NOT HER OWN,
 IS NOT EASILY PROVOKED, THINKETH NO EVIL,
 REJOICETH NOT IN INIQUITY, BUT REJOICETH IN THE TRUTH,
 BEARETH ALL THINGS, BELIEVETH ALL THINGS,
 HOPETH ALL THINGS, ENDURETH ALL THINGS.
 LOVE NEVER FAILETH, BUT WHETHER THERE BE PROPHECIES, THEY SHALL FAIL, 
 WHETHER THERE BE TONGUES, THEY SHALL CEASE,
 WHETHER THERE BE KNOWLEDGE, IT SHALL VANISH AWAY.
 FOR WE KNOW IN PART, AND WE PROPHESY IN PART.
 BUT WHEN THAT WHICH IS PERFECT IS COME, THEN THAT WHICH IS IN PART 
 SHALL BE DONE AWAY. 
 WHEN I WAS A CHILD, I SPAKE AS A CHILD, I UNDERSTOOD AS A CHILD, 
 I THOUGHT AS A CHILD.
 BUT WHEN I BECAME A MAN, I PUT AWAY CHILDISH THINGS.
 FOR NOW WE SEE THROUGH A GLASS, DARKLY, BUT THEN FACE TO FACE.
 NOW I KNOW IN PART. BUT THEN SHALL I KNOW EVEN AS ALSO I AM KNOWN.
 AND NOW ABIDETH FAITH, HOPE AND LOVE, THESE THREE.
 BUT THE GREATEST OF THESE IS LOVE.

                     I CORINTHIANS 13
 Job cpu time:       0 days  0 hours  5 minutes  4.1 seconds.
 Elapsed time:       0 days  0 hours  0 minutes 25.1 seconds.
 File lengths (MBytes):  RWF=     32 Int=      0 D2E=      0 Chk=      5 Scr=      1
 Normal termination of Gaussian 16 at Mon Nov 13 17:32:11 2023.
