 Entering Gaussian System, Link 0=g16
 Initial command:
 /home/sekinelabo/g16/l1.exe "/home/sekinelabo/g16temp/Gau-4091805.inp" -scrdir="/home/sekinelabo/g16temp/"
 Entering Link 1 = /home/sekinelabo/g16/l1.exe PID=   4091807.
  
 Copyright (c) 1988-2017, Gaussian, Inc.  All Rights Reserved.
  
 This is part of the Gaussian(R) 16 program.  It is based on
 the Gaussian(R) 09 system (copyright 2009, Gaussian, Inc.),
 the Gaussian(R) 03 system (copyright 2003, Gaussian, Inc.),
 the Gaussian(R) 98 system (copyright 1998, Gaussian, Inc.),
 the Gaussian(R) 94 system (copyright 1995, Gaussian, Inc.),
 the Gaussian 92(TM) system (copyright 1992, Gaussian, Inc.),
 the Gaussian 90(TM) system (copyright 1990, Gaussian, Inc.),
 the Gaussian 88(TM) system (copyright 1988, Gaussian, Inc.),
 the Gaussian 86(TM) system (copyright 1986, Carnegie Mellon
 University), and the Gaussian 82(TM) system (copyright 1983,
 Carnegie Mellon University). Gaussian is a federally registered
 trademark of Gaussian, Inc.
  
 This software contains proprietary and confidential information,
 including trade secrets, belonging to Gaussian, Inc.
  
 This software is provided under written license and may be
 used, copied, transmitted, or stored only in accord with that
 written license.
  
 The following legend is applicable only to US Government
 contracts under FAR:
  
                    RESTRICTED RIGHTS LEGEND
  
 Use, reproduction and disclosure by the US Government is
 subject to restrictions as set forth in subparagraphs (a)
 and (c) of the Commercial Computer Software - Restricted
 Rights clause in FAR 52.227-19.
  
 Gaussian, Inc.
 340 Quinnipiac St., Bldg. 40, Wallingford CT 06492
  
  
 ---------------------------------------------------------------
 Warning -- This program may not be used in any manner that
 competes with the business of Gaussian, Inc. or will provide
 assistance to any competitor of Gaussian, Inc.  The licensee
 of this program is prohibited from giving any competitor of
 Gaussian, Inc. access to this program.  By using this program,
 the user acknowledges that Gaussian, Inc. is engaged in the
 business of creating and licensing software in the field of
 computational chemistry and represents and warrants to the
 licensee that it is not a competitor of Gaussian, Inc. and that
 it will not use this program in any manner prohibited above.
 ---------------------------------------------------------------
  

 Cite this work as:
 Gaussian 16, Revision B.01,
 M. J. Frisch, G. W. Trucks, H. B. Schlegel, G. E. Scuseria, 
 M. A. Robb, J. R. Cheeseman, G. Scalmani, V. Barone, 
 G. A. Petersson, H. Nakatsuji, X. Li, M. Caricato, A. V. Marenich, 
 J. Bloino, B. G. Janesko, R. Gomperts, B. Mennucci, H. P. Hratchian, 
 J. V. Ortiz, A. F. Izmaylov, J. L. Sonnenberg, D. Williams-Young, 
 F. Ding, F. Lipparini, F. Egidi, J. Goings, B. Peng, A. Petrone, 
 T. Henderson, D. Ranasinghe, V. G. Zakrzewski, J. Gao, N. Rega, 
 G. Zheng, W. Liang, M. Hada, M. Ehara, K. Toyota, R. Fukuda, 
 J. Hasegawa, M. Ishida, T. Nakajima, Y. Honda, O. Kitao, H. Nakai, 
 T. Vreven, K. Throssell, J. A. Montgomery, Jr., J. E. Peralta, 
 F. Ogliaro, M. J. Bearpark, J. J. Heyd, E. N. Brothers, K. N. Kudin, 
 V. N. Staroverov, T. A. Keith, R. Kobayashi, J. Normand, 
 K. Raghavachari, A. P. Rendell, J. C. Burant, S. S. Iyengar, 
 J. Tomasi, M. Cossi, J. M. Millam, M. Klene, C. Adamo, R. Cammi, 
 J. W. Ochterski, R. L. Martin, K. Morokuma, O. Farkas, 
 J. B. Foresman, and D. J. Fox, Gaussian, Inc., Wallingford CT, 2016.
 
 ******************************************
 Gaussian 16:  ES64L-G16RevB.01 20-Dec-2017
                13-Nov-2023 
 ******************************************
 %mem=14GB
 %chk=checkpoint.chk
 %nprocshared=16
 Will use up to   16 processors via shared memory.
 -------------------------
 #P B3LYP/6-311+g(d) force
 -------------------------
 1/10=7,30=1,38=1/1,3;
 2/12=2,17=6,18=5,40=1/2;
 3/5=4,6=6,7=11,11=2,25=1,30=1,71=1,74=-5/1,2,3;
 4//1;
 5/5=2,38=5/2;
 6/7=2,8=2,9=2,10=2,28=1/1;
 7/29=1/1,2,3,16;
 1/10=7,30=1/3;
 99//99;
 Leave Link    1 at Mon Nov 13 17:49:27 2023, MaxMem=  1879048192 cpu:               0.3 elap:               0.0
 (Enter /home/sekinelabo/g16/l101.exe)
 ------------------------------
 Gaussian input prepared by ASE
 ------------------------------
 Symbolic Z-matrix:
 Charge =  0 Multiplicity = 2
 Na                    2.3714    1.77292   2.77671 
 Na                    3.23057   4.51887   1.93309 
 Na                    0.        0.69965   1.28567 
 Na                    1.78813   2.73736   0. 
 Na                    4.61028   2.10665   0.80643 
 Na                    7.47403   2.88445   1.2693 
 Na                    6.66558   0.        1.40069 
 
 ITRead=  0  0  0  0  0  0  0
 MicOpt= -1 -1 -1 -1 -1 -1 -1
 NAtoms=      7 NQM=        7 NQMF=       0 NMMI=      0 NMMIF=      0
                NMic=       0 NMicF=      0.
                    Isotopes and Nuclear Properties:
 (Nuclear quadrupole moments (NQMom) in fm**2, nuclear magnetic moments (NMagM)
  in nuclear magnetons)

  Atom         1           2           3           4           5           6           7
 IAtWgt=          23          23          23          23          23          23          23
 AtmWgt=  22.9897697  22.9897697  22.9897697  22.9897697  22.9897697  22.9897697  22.9897697
 NucSpn=           3           3           3           3           3           3           3
 AtZEff=  -0.0000000  -0.0000000  -0.0000000  -0.0000000  -0.0000000  -0.0000000  -0.0000000
 NQMom=   10.4000000  10.4000000  10.4000000  10.4000000  10.4000000  10.4000000  10.4000000
 NMagM=    2.2175200   2.2175200   2.2175200   2.2175200   2.2175200   2.2175200   2.2175200
 AtZNuc=  11.0000000  11.0000000  11.0000000  11.0000000  11.0000000  11.0000000  11.0000000
 Leave Link  101 at Mon Nov 13 17:49:27 2023, MaxMem=  1879048192 cpu:               2.7 elap:               0.2
 (Enter /home/sekinelabo/g16/l103.exe)

 GradGradGradGradGradGradGradGradGradGradGradGradGradGradGradGradGradGrad
 Berny optimization.
 Initialization pass.
 Trust Radius=3.00D-01 FncErr=1.00D-07 GrdErr=1.00D-07 EigMax=2.50D+02 EigMin=1.00D-04
 Number of steps in this run=      2 maximum allowed number of steps=      2.
 GradGradGradGradGradGradGradGradGradGradGradGradGradGradGradGradGradGrad

 Leave Link  103 at Mon Nov 13 17:49:27 2023, MaxMem=  1879048192 cpu:               0.2 elap:               0.0
 (Enter /home/sekinelabo/g16/l202.exe)
                          Input orientation:                          
 ---------------------------------------------------------------------
 Center     Atomic      Atomic             Coordinates (Angstroms)
 Number     Number       Type             X           Y           Z
 ---------------------------------------------------------------------
      1         11           0        2.371397    1.772925    2.776711
      2         11           0        3.230569    4.518872    1.933090
      3         11           0        0.000000    0.699647    1.285666
      4         11           0        1.788134    2.737363    0.000000
      5         11           0        4.610277    2.106653    0.806433
      6         11           0        7.474025    2.884451    1.269298
      7         11           0        6.665583    0.000000    1.400687
 ---------------------------------------------------------------------
                    Distance matrix (angstroms):
                    1          2          3          4          5
     1  Na   0.000000
     2  Na   2.998350   0.000000
     3  Na   2.999777   5.044028   0.000000
     4  Na   2.996741   2.998538   3.000441   0.000000
     5  Na   3.000992   2.998625   4.843964   3.002102   0.000000
     6  Na   5.435495   4.595528   7.786828   5.827702   3.003376
     7  Na   4.845279   5.701138   6.703188   5.765812   3.002566
                    6          7
     6  Na   0.000000
     7  Na   2.998483   0.000000
 Stoichiometry    Na7(2)
 Framework group  C1[X(Na7)]
 Deg. of freedom    15
 Full point group                 C1      NOp   1
 Largest Abelian subgroup         C1      NOp   1
 Largest concise Abelian subgroup C1      NOp   1
                         Standard orientation:                         
 ---------------------------------------------------------------------
 Center     Atomic      Atomic             Coordinates (Angstroms)
 Number     Number       Type             X           Y           Z
 ---------------------------------------------------------------------
      1         11           0       -1.362887   -0.329920    1.423584
      2         11           0       -0.503714    2.416028    0.579964
      3         11           0       -3.734284   -1.403197   -0.067460
      4         11           0       -1.946149    0.634519   -1.353126
      5         11           0        0.875993    0.003808   -0.546694
      6         11           0        3.739742    0.781606   -0.083829
      7         11           0        2.931299   -2.102844    0.047561
 ---------------------------------------------------------------------
 Rotational constants (GHZ):           1.2310380           0.4608962           0.3888032
 Leave Link  202 at Mon Nov 13 17:49:27 2023, MaxMem=  1879048192 cpu:               0.1 elap:               0.0
 (Enter /home/sekinelabo/g16/l301.exe)
 Standard basis: 6-311+G(d) (5D, 7F)
 Ernie: Thresh=  0.10000D-02 Tol=  0.10000D-05 Strict=F.
 There are   217 symmetry adapted cartesian basis functions of A   symmetry.
 There are   210 symmetry adapted basis functions of A   symmetry.
   210 basis functions,   350 primitive gaussians,   217 cartesian basis functions
    39 alpha electrons       38 beta electrons
       nuclear repulsion energy       350.7184079488 Hartrees.
 IExCor=  402 DFT=T Ex+Corr=B3LYP ExCW=0 ScaHFX=  0.200000
 ScaDFX=  0.800000  0.720000  1.000000  0.810000 ScalE2=  1.000000  1.000000
 IRadAn=      5 IRanWt=     -1 IRanGd=            0 ICorTp=0 IEmpDi=  4
 NAtoms=    7 NActive=    7 NUniq=    7 SFac= 1.00D+00 NAtFMM=   60 NAOKFM=F Big=F
 Integral buffers will be    131072 words long.
 Raffenetti 2 integral format.
 Two-electron integral symmetry is turned on.
 Leave Link  301 at Mon Nov 13 17:49:27 2023, MaxMem=  1879048192 cpu:               0.5 elap:               0.0
 (Enter /home/sekinelabo/g16/l302.exe)
 NPDir=0 NMtPBC=     1 NCelOv=     1 NCel=       1 NClECP=     1 NCelD=      1
         NCelK=      1 NCelE2=     1 NClLst=     1 CellRange=     0.0.
 One-electron integrals computed using PRISM.
 One-electron integral symmetry used in STVInt
 NBasis=   210 RedAO= T EigKep=  2.10D-06  NBF=   210
 NBsUse=   210 1.00D-06 EigRej= -1.00D+00 NBFU=   210
 Precomputing XC quadrature grid using
 IXCGrd= 4 IRadAn=           5 IRanWt=          -1 IRanGd=           0 AccXCQ= 0.00D+00.
 Generated NRdTot=       0 NPtTot=           0 NUsed=           0 NTot=          32
 NSgBfM=   210   210   210   210   210 MxSgAt=     7 MxSgA2=     7.
 Leave Link  302 at Mon Nov 13 17:49:28 2023, MaxMem=  1879048192 cpu:               2.1 elap:               0.1
 (Enter /home/sekinelabo/g16/l303.exe)
 DipDrv:  MaxL=1.
 Leave Link  303 at Mon Nov 13 17:49:28 2023, MaxMem=  1879048192 cpu:               0.6 elap:               0.0
 (Enter /home/sekinelabo/g16/l401.exe)
 ExpMin= 7.60D-03 ExpMax= 3.62D+04 ExpMxC= 1.21D+03 IAcc=3 IRadAn=         5 AccDes= 0.00D+00
 Harris functional with IExCor=  402 and IRadAn=       5 diagonalized for initial guess.
 HarFok:  IExCor=  402 AccDes= 0.00D+00 IRadAn=         5 IDoV= 1 UseB2=F ITyADJ=14
 ICtDFT=  3500011 ScaDFX=  1.000000  1.000000  1.000000  1.000000
 FoFCou: FMM=F IPFlag=           0 FMFlag=      100000 FMFlg1=           0
         NFxFlg=           0 DoJE=T BraDBF=F KetDBF=T FulRan=T
         wScrn=  0.000000 ICntrl=       500 IOpCl=  0 I1Cent=   200000004 NGrid=           0
         NMat0=    1 NMatS0=      1 NMatT0=    0 NMatD0=    1 NMtDS0=    0 NMtDT0=    0
 Petite list used in FoFCou.
 Harris En= -1135.86444842083    
 JPrj=0 DoOrth=F DoCkMO=F.
 Initial guess <Sx>= 0.0000 <Sy>= 0.0000 <Sz>= 0.5000 <S**2>= 0.7500 S= 0.5000
 Leave Link  401 at Mon Nov 13 17:49:28 2023, MaxMem=  1879048192 cpu:               4.7 elap:               0.3
 (Enter /home/sekinelabo/g16/l502.exe)
 Keep R1 and R2 ints in memory in canonical form, NReq=507620374.
 FoFCou: FMM=F IPFlag=           0 FMFlag=           0 FMFlg1=           0
         NFxFlg=           0 DoJE=F BraDBF=F KetDBF=F FulRan=T
         wScrn=  0.000000 ICntrl=       600 IOpCl=  0 I1Cent=           0 NGrid=           0
         NMat0=    1 NMatS0=  22155 NMatT0=    0 NMatD0=    1 NMtDS0=    0 NMtDT0=    0
 Symmetry not used in FoFCou.
 Two-electron integral symmetry not used.
 UHF open shell SCF:
 Using DIIS extrapolation, IDIIS=  1040.
 NGot=  1879048192 LenX=  1388082362 LenY=  1388034832
 Requested convergence on RMS density matrix=1.00D-08 within 128 cycles.
 Requested convergence on MAX density matrix=1.00D-06.
 Requested convergence on             energy=1.00D-06.
 No special actions if energy rises.

 Cycle   1  Pass 1  IDiag  1:
 E= -1136.05153884560    
 DIIS: error= 9.94D-03 at cycle   1 NSaved=   1.
 NSaved= 1 IEnMin= 1 EnMin= -1136.05153884560     IErMin= 1 ErrMin= 9.94D-03
 ErrMax= 9.94D-03  0.00D+00 EMaxC= 1.00D-01 BMatC= 1.95D-01 BMatP= 1.95D-01
 IDIUse=3 WtCom= 9.01D-01 WtEn= 9.94D-02
 Coeff-Com:  0.100D+01
 Coeff-En:   0.100D+01
 Coeff:      0.100D+01
 Gap=     0.020 Goal=   None    Shift=    0.000
 Gap=     0.054 Goal=   None    Shift=    0.000
 GapD=    0.020 DampG=0.250 DampE=1.000 DampFc=0.2500 IDamp=-1.
 Damping current iteration by 2.50D-01
 RMSDP=2.21D-02 MaxDP=1.88D+00              OVMax= 4.37D-01

 Cycle   2  Pass 1  IDiag  1:
 E= -1136.06428403127     Delta-E=       -0.012745185671 Rises=F Damp=T
 DIIS: error= 7.04D-03 at cycle   2 NSaved=   2.
 NSaved= 2 IEnMin= 2 EnMin= -1136.06428403127     IErMin= 2 ErrMin= 7.04D-03
 ErrMax= 7.04D-03  0.00D+00 EMaxC= 1.00D-01 BMatC= 7.43D-02 BMatP= 1.95D-01
 IDIUse=3 WtCom= 9.30D-01 WtEn= 7.04D-02
 Coeff-Com: -0.121D+01 0.221D+01
 Coeff-En:   0.000D+00 0.100D+01
 Coeff:     -0.112D+01 0.212D+01
 Gap=     0.034 Goal=   None    Shift=    0.000
 Gap=     0.054 Goal=   None    Shift=    0.000
 RMSDP=1.43D-02 MaxDP=1.20D+00 DE=-1.27D-02 OVMax= 4.53D-01

 Cycle   3  Pass 1  IDiag  1:
 E= -1136.07031813903     Delta-E=       -0.006034107756 Rises=F Damp=F
 DIIS: error= 7.10D-03 at cycle   3 NSaved=   3.
 NSaved= 3 IEnMin= 3 EnMin= -1136.07031813903     IErMin= 2 ErrMin= 7.04D-03
 ErrMax= 7.10D-03  0.00D+00 EMaxC= 1.00D-01 BMatC= 1.75D-02 BMatP= 7.43D-02
 IDIUse=3 WtCom= 9.29D-01 WtEn= 7.10D-02
 Coeff-Com: -0.606D+00 0.105D+01 0.552D+00
 Coeff-En:   0.000D+00 0.284D+00 0.716D+00
 Coeff:     -0.563D+00 0.100D+01 0.563D+00
 Gap=     0.027 Goal=   None    Shift=    0.000
 Gap=     0.056 Goal=   None    Shift=    0.000
 RMSDP=1.18D-02 MaxDP=5.44D-01 DE=-6.03D-03 OVMax= 2.39D-01

 Cycle   4  Pass 1  IDiag  1:
 E= -1136.08173108687     Delta-E=       -0.011412947845 Rises=F Damp=F
 DIIS: error= 4.87D-03 at cycle   4 NSaved=   4.
 NSaved= 4 IEnMin= 4 EnMin= -1136.08173108687     IErMin= 4 ErrMin= 4.87D-03
 ErrMax= 4.87D-03  0.00D+00 EMaxC= 1.00D-01 BMatC= 7.73D-03 BMatP= 1.75D-02
 IDIUse=3 WtCom= 9.51D-01 WtEn= 4.87D-02
 Coeff-Com: -0.701D-01 0.113D+00 0.391D+00 0.567D+00
 Coeff-En:   0.000D+00 0.000D+00 0.347D+00 0.653D+00
 Coeff:     -0.667D-01 0.107D+00 0.389D+00 0.571D+00
 Gap=     0.029 Goal=   None    Shift=    0.000
 Gap=     0.043 Goal=   None    Shift=    0.000
 RMSDP=5.96D-03 MaxDP=3.00D-01 DE=-1.14D-02 OVMax= 1.42D-01

 Cycle   5  Pass 1  IDiag  1:
 E= -1136.09012634534     Delta-E=       -0.008395258465 Rises=F Damp=F
 DIIS: error= 1.32D-03 at cycle   5 NSaved=   5.
 NSaved= 5 IEnMin= 5 EnMin= -1136.09012634534     IErMin= 5 ErrMin= 1.32D-03
 ErrMax= 1.32D-03  0.00D+00 EMaxC= 1.00D-01 BMatC= 8.89D-04 BMatP= 7.73D-03
 IDIUse=3 WtCom= 9.87D-01 WtEn= 1.32D-02
 Coeff-Com: -0.142D-01 0.184D-01 0.201D+00 0.346D+00 0.449D+00
 Coeff-En:   0.000D+00 0.000D+00 0.000D+00 0.706D-01 0.929D+00
 Coeff:     -0.140D-01 0.181D-01 0.198D+00 0.342D+00 0.455D+00
 Gap=     0.029 Goal=   None    Shift=    0.000
 Gap=     0.042 Goal=   None    Shift=    0.000
 RMSDP=2.23D-03 MaxDP=1.36D-01 DE=-8.40D-03 OVMax= 4.19D-02

 Cycle   6  Pass 1  IDiag  1:
 E= -1136.09108525486     Delta-E=       -0.000958909525 Rises=F Damp=F
 DIIS: error= 2.62D-04 at cycle   6 NSaved=   6.
 NSaved= 6 IEnMin= 6 EnMin= -1136.09108525486     IErMin= 6 ErrMin= 2.62D-04
 ErrMax= 2.62D-04  0.00D+00 EMaxC= 1.00D-01 BMatC= 4.51D-05 BMatP= 8.89D-04
 IDIUse=3 WtCom= 9.97D-01 WtEn= 2.62D-03
 Coeff-Com: -0.114D-02 0.901D-03-0.162D-01-0.197D-01 0.162D+00 0.874D+00
 Coeff-En:   0.000D+00 0.000D+00 0.000D+00 0.000D+00 0.000D+00 0.100D+01
 Coeff:     -0.114D-02 0.899D-03-0.161D-01-0.197D-01 0.162D+00 0.874D+00
 Gap=     0.030 Goal=   None    Shift=    0.000
 Gap=     0.043 Goal=   None    Shift=    0.000
 RMSDP=6.59D-04 MaxDP=5.29D-02 DE=-9.59D-04 OVMax= 1.10D-02

 Cycle   7  Pass 1  IDiag  1:
 E= -1136.09114095001     Delta-E=       -0.000055695151 Rises=F Damp=F
 DIIS: error= 8.82D-05 at cycle   7 NSaved=   7.
 NSaved= 7 IEnMin= 7 EnMin= -1136.09114095001     IErMin= 7 ErrMin= 8.82D-05
 ErrMax= 8.82D-05  0.00D+00 EMaxC= 1.00D-01 BMatC= 3.37D-06 BMatP= 4.51D-05
 IDIUse=1 WtCom= 1.00D+00 WtEn= 0.00D+00
 Coeff-Com: -0.131D-02 0.160D-02-0.146D-01-0.217D-01 0.424D-01 0.319D+00
 Coeff-Com:  0.674D+00
 Coeff:     -0.131D-02 0.160D-02-0.146D-01-0.217D-01 0.424D-01 0.319D+00
 Coeff:      0.674D+00
 Gap=     0.030 Goal=   None    Shift=    0.000
 Gap=     0.043 Goal=   None    Shift=    0.000
 RMSDP=2.75D-04 MaxDP=1.51D-02 DE=-5.57D-05 OVMax= 3.68D-03

 Cycle   8  Pass 1  IDiag  1:
 E= -1136.09114521484     Delta-E=       -0.000004264822 Rises=F Damp=F
 DIIS: error= 5.20D-05 at cycle   8 NSaved=   8.
 NSaved= 8 IEnMin= 8 EnMin= -1136.09114521484     IErMin= 8 ErrMin= 5.20D-05
 ErrMax= 5.20D-05  0.00D+00 EMaxC= 1.00D-01 BMatC= 1.04D-06 BMatP= 3.37D-06
 IDIUse=1 WtCom= 1.00D+00 WtEn= 0.00D+00
 Coeff-Com: -0.559D-03 0.748D-03-0.320D-02-0.539D-02-0.146D-01-0.335D-01
 Coeff-Com:  0.336D+00 0.721D+00
 Coeff:     -0.559D-03 0.748D-03-0.320D-02-0.539D-02-0.146D-01-0.335D-01
 Coeff:      0.336D+00 0.721D+00
 Gap=     0.030 Goal=   None    Shift=    0.000
 Gap=     0.043 Goal=   None    Shift=    0.000
 RMSDP=1.21D-04 MaxDP=8.82D-03 DE=-4.26D-06 OVMax= 4.05D-03

 Cycle   9  Pass 1  IDiag  1:
 E= -1136.09114761116     Delta-E=       -0.000002396326 Rises=F Damp=F
 DIIS: error= 2.53D-05 at cycle   9 NSaved=   9.
 NSaved= 9 IEnMin= 9 EnMin= -1136.09114761116     IErMin= 9 ErrMin= 2.53D-05
 ErrMax= 2.53D-05  0.00D+00 EMaxC= 1.00D-01 BMatC= 1.81D-07 BMatP= 1.04D-06
 IDIUse=1 WtCom= 1.00D+00 WtEn= 0.00D+00
 Coeff-Com:  0.563D-03-0.737D-03 0.104D-02 0.117D-02-0.146D-01-0.608D-01
 Coeff-Com: -0.496D-01 0.198D+00 0.925D+00
 Coeff:      0.563D-03-0.737D-03 0.104D-02 0.117D-02-0.146D-01-0.608D-01
 Coeff:     -0.496D-01 0.198D+00 0.925D+00
 Gap=     0.030 Goal=   None    Shift=    0.000
 Gap=     0.043 Goal=   None    Shift=    0.000
 RMSDP=1.19D-04 MaxDP=6.31D-03 DE=-2.40D-06 OVMax= 3.59D-03

 Cycle  10  Pass 1  IDiag  1:
 E= -1136.09114871358     Delta-E=       -0.000001102414 Rises=F Damp=F
 DIIS: error= 1.96D-05 at cycle  10 NSaved=  10.
 NSaved=10 IEnMin=10 EnMin= -1136.09114871358     IErMin=10 ErrMin= 1.96D-05
 ErrMax= 1.96D-05  0.00D+00 EMaxC= 1.00D-01 BMatC= 5.48D-08 BMatP= 1.81D-07
 IDIUse=1 WtCom= 1.00D+00 WtEn= 0.00D+00
 Coeff-Com:  0.363D-03-0.481D-03 0.136D-02 0.142D-02 0.373D-02 0.969D-02
 Coeff-Com: -0.125D+00-0.223D+00 0.472D-01 0.128D+01
 Coeff:      0.363D-03-0.481D-03 0.136D-02 0.142D-02 0.373D-02 0.969D-02
 Coeff:     -0.125D+00-0.223D+00 0.472D-01 0.128D+01
 Gap=     0.030 Goal=   None    Shift=    0.000
 Gap=     0.043 Goal=   None    Shift=    0.000
 RMSDP=9.29D-05 MaxDP=4.21D-03 DE=-1.10D-06 OVMax= 4.54D-03

 Cycle  11  Pass 1  IDiag  1:
 E= -1136.09114952112     Delta-E=       -0.000000807540 Rises=F Damp=F
 DIIS: error= 1.13D-05 at cycle  11 NSaved=  11.
 NSaved=11 IEnMin=11 EnMin= -1136.09114952112     IErMin=11 ErrMin= 1.13D-05
 ErrMax= 1.13D-05  0.00D+00 EMaxC= 1.00D-01 BMatC= 3.44D-08 BMatP= 5.48D-08
 IDIUse=1 WtCom= 1.00D+00 WtEn= 0.00D+00
 Coeff-Com:  0.748D-04-0.111D-03 0.431D-03-0.295D-03 0.685D-02 0.258D-01
 Coeff-Com: -0.399D-01-0.118D+00-0.231D+00 0.412D+00 0.943D+00
 Coeff:      0.748D-04-0.111D-03 0.431D-03-0.295D-03 0.685D-02 0.258D-01
 Coeff:     -0.399D-01-0.118D+00-0.231D+00 0.412D+00 0.943D+00
 Gap=     0.030 Goal=   None    Shift=    0.000
 Gap=     0.043 Goal=   None    Shift=    0.000
 RMSDP=5.95D-05 MaxDP=3.95D-03 DE=-8.08D-07 OVMax= 2.90D-03

 Cycle  12  Pass 1  IDiag  1:
 E= -1136.09114989182     Delta-E=       -0.000000370708 Rises=F Damp=F
 DIIS: error= 7.62D-06 at cycle  12 NSaved=  12.
 NSaved=12 IEnMin=12 EnMin= -1136.09114989182     IErMin=12 ErrMin= 7.62D-06
 ErrMax= 7.62D-06  0.00D+00 EMaxC= 1.00D-01 BMatC= 1.98D-08 BMatP= 3.44D-08
 IDIUse=1 WtCom= 1.00D+00 WtEn= 0.00D+00
 Coeff-Com: -0.880D-04 0.964D-04-0.398D-03-0.142D-02 0.421D-02 0.201D-01
 Coeff-Com:  0.460D-01 0.422D-01-0.256D+00-0.476D+00 0.580D+00 0.104D+01
 Coeff:     -0.880D-04 0.964D-04-0.398D-03-0.142D-02 0.421D-02 0.201D-01
 Coeff:      0.460D-01 0.422D-01-0.256D+00-0.476D+00 0.580D+00 0.104D+01
 Gap=     0.030 Goal=   None    Shift=    0.000
 Gap=     0.043 Goal=   None    Shift=    0.000
 RMSDP=6.31D-05 MaxDP=3.65D-03 DE=-3.71D-07 OVMax= 3.68D-03

 Cycle  13  Pass 1  IDiag  1:
 E= -1136.09115021579     Delta-E=       -0.000000323970 Rises=F Damp=F
 DIIS: error= 3.71D-06 at cycle  13 NSaved=  13.
 NSaved=13 IEnMin=13 EnMin= -1136.09115021579     IErMin=13 ErrMin= 3.71D-06
 ErrMax= 3.71D-06  0.00D+00 EMaxC= 1.00D-01 BMatC= 5.34D-09 BMatP= 1.98D-08
 IDIUse=1 WtCom= 1.00D+00 WtEn= 0.00D+00
 Coeff-Com:  0.129D-03-0.174D-03-0.512D-04 0.105D-03-0.278D-02-0.867D-02
 Coeff-Com: -0.392D-04 0.205D-01 0.771D-01-0.328D-01-0.388D+00-0.182D+00
 Coeff-Com:  0.152D+01
 Coeff:      0.129D-03-0.174D-03-0.512D-04 0.105D-03-0.278D-02-0.867D-02
 Coeff:     -0.392D-04 0.205D-01 0.771D-01-0.328D-01-0.388D+00-0.182D+00
 Coeff:      0.152D+01
 Gap=     0.030 Goal=   None    Shift=    0.000
 Gap=     0.043 Goal=   None    Shift=    0.000
 RMSDP=4.58D-05 MaxDP=2.45D-03 DE=-3.24D-07 OVMax= 2.86D-03

 Cycle  14  Pass 1  IDiag  1:
 E= -1136.09115036530     Delta-E=       -0.000000149503 Rises=F Damp=F
 DIIS: error= 2.25D-06 at cycle  14 NSaved=  14.
 NSaved=14 IEnMin=14 EnMin= -1136.09115036530     IErMin=14 ErrMin= 2.25D-06
 ErrMax= 2.25D-06  0.00D+00 EMaxC= 1.00D-01 BMatC= 2.38D-09 BMatP= 5.34D-09
 IDIUse=1 WtCom= 1.00D+00 WtEn= 0.00D+00
 Coeff-Com:  0.940D-04-0.120D-03 0.144D-03 0.475D-03-0.152D-02-0.643D-02
 Coeff-Com: -0.242D-01-0.235D-01 0.894D-01 0.250D+00-0.324D+00-0.513D+00
 Coeff-Com:  0.491D+00 0.106D+01
 Coeff:      0.940D-04-0.120D-03 0.144D-03 0.475D-03-0.152D-02-0.643D-02
 Coeff:     -0.242D-01-0.235D-01 0.894D-01 0.250D+00-0.324D+00-0.513D+00
 Coeff:      0.491D+00 0.106D+01
 Gap=     0.030 Goal=   None    Shift=    0.000
 Gap=     0.043 Goal=   None    Shift=    0.000
 RMSDP=2.48D-05 MaxDP=1.78D-03 DE=-1.50D-07 OVMax= 1.48D-03

 Cycle  15  Pass 1  IDiag  1:
 E= -1136.09115041246     Delta-E=       -0.000000047162 Rises=F Damp=F
 DIIS: error= 1.86D-06 at cycle  15 NSaved=  15.
 NSaved=15 IEnMin=15 EnMin= -1136.09115041246     IErMin=15 ErrMin= 1.86D-06
 ErrMax= 1.86D-06  0.00D+00 EMaxC= 1.00D-01 BMatC= 8.94D-10 BMatP= 2.38D-09
 IDIUse=1 WtCom= 1.00D+00 WtEn= 0.00D+00
 Coeff-Com: -0.247D-04 0.333D-04 0.133D-03-0.575D-04 0.147D-02 0.467D-02
 Coeff-Com: -0.460D-02-0.178D-01-0.280D-01 0.425D-01 0.144D+00 0.642D-01
 Coeff-Com: -0.613D+00-0.174D+00 0.158D+01
 Coeff:     -0.247D-04 0.333D-04 0.133D-03-0.575D-04 0.147D-02 0.467D-02
 Coeff:     -0.460D-02-0.178D-01-0.280D-01 0.425D-01 0.144D+00 0.642D-01
 Coeff:     -0.613D+00-0.174D+00 0.158D+01
 Gap=     0.030 Goal=   None    Shift=    0.000
 Gap=     0.043 Goal=   None    Shift=    0.000
 RMSDP=2.06D-05 MaxDP=1.65D-03 DE=-4.72D-08 OVMax= 1.06D-03

 Cycle  16  Pass 1  IDiag  1:
 E= -1136.09115043473     Delta-E=       -0.000000022275 Rises=F Damp=F
 DIIS: error= 9.14D-07 at cycle  16 NSaved=  16.
 NSaved=16 IEnMin=16 EnMin= -1136.09115043473     IErMin=16 ErrMin= 9.14D-07
 ErrMax= 9.14D-07  0.00D+00 EMaxC= 1.00D-01 BMatC= 2.64D-10 BMatP= 8.94D-10
 IDIUse=1 WtCom= 1.00D+00 WtEn= 0.00D+00
 Coeff-Com: -0.348D-05 0.263D-05-0.445D-04-0.109D-03 0.305D-04 0.448D-03
 Coeff-Com:  0.610D-02 0.965D-02-0.148D-01-0.629D-01 0.297D-01 0.942D-01
 Coeff-Com:  0.670D-01-0.154D+00-0.637D+00 0.166D+01
 Coeff:     -0.348D-05 0.263D-05-0.445D-04-0.109D-03 0.305D-04 0.448D-03
 Coeff:      0.610D-02 0.965D-02-0.148D-01-0.629D-01 0.297D-01 0.942D-01
 Coeff:      0.670D-01-0.154D+00-0.637D+00 0.166D+01
 Gap=     0.030 Goal=   None    Shift=    0.000
 Gap=     0.043 Goal=   None    Shift=    0.000
 RMSDP=1.13D-05 MaxDP=7.63D-04 DE=-2.23D-08 OVMax= 3.97D-04

 Cycle  17  Pass 1  IDiag  1:
 E= -1136.09115044152     Delta-E=       -0.000000006791 Rises=F Damp=F
 DIIS: error= 5.94D-07 at cycle  17 NSaved=  17.
 NSaved=17 IEnMin=17 EnMin= -1136.09115044152     IErMin=17 ErrMin= 5.94D-07
 ErrMax= 5.94D-07  0.00D+00 EMaxC= 1.00D-01 BMatC= 1.18D-10 BMatP= 2.64D-10
 IDIUse=1 WtCom= 1.00D+00 WtEn= 0.00D+00
 Coeff-Com: -0.245D-05 0.388D-05-0.712D-04 0.457D-04-0.490D-03-0.151D-02
 Coeff-Com:  0.785D-03 0.339D-02 0.117D-01-0.392D-02-0.374D-01-0.466D-01
 Coeff-Com:  0.203D+00 0.925D-01-0.424D+00-0.398D+00 0.160D+01
 Coeff:     -0.245D-05 0.388D-05-0.712D-04 0.457D-04-0.490D-03-0.151D-02
 Coeff:      0.785D-03 0.339D-02 0.117D-01-0.392D-02-0.374D-01-0.466D-01
 Coeff:      0.203D+00 0.925D-01-0.424D+00-0.398D+00 0.160D+01
 Gap=     0.030 Goal=   None    Shift=    0.000
 Gap=     0.043 Goal=   None    Shift=    0.000
 RMSDP=6.53D-06 MaxDP=4.09D-04 DE=-6.79D-09 OVMax= 2.18D-04

 Cycle  18  Pass 1  IDiag  1:
 E= -1136.09115044434     Delta-E=       -0.000000002816 Rises=F Damp=F
 DIIS: error= 4.38D-07 at cycle  18 NSaved=  18.
 NSaved=18 IEnMin=18 EnMin= -1136.09115044434     IErMin=18 ErrMin= 4.38D-07
 ErrMax= 4.38D-07  0.00D+00 EMaxC= 1.00D-01 BMatC= 4.12D-11 BMatP= 1.18D-10
 IDIUse=1 WtCom= 1.00D+00 WtEn= 0.00D+00
 Coeff-Com: -0.232D-06 0.788D-06 0.792D-05 0.179D-04-0.793D-04-0.424D-03
 Coeff-Com: -0.501D-03 0.288D-03 0.311D-02 0.438D-02-0.618D-02-0.797D-02
 Coeff-Com: -0.375D-01 0.629D-02 0.302D+00-0.594D+00-0.219D+00 0.155D+01
 Coeff:     -0.232D-06 0.788D-06 0.792D-05 0.179D-04-0.793D-04-0.424D-03
 Coeff:     -0.501D-03 0.288D-03 0.311D-02 0.438D-02-0.618D-02-0.797D-02
 Coeff:     -0.375D-01 0.629D-02 0.302D+00-0.594D+00-0.219D+00 0.155D+01
 Gap=     0.030 Goal=   None    Shift=    0.000
 Gap=     0.043 Goal=   None    Shift=    0.000
 RMSDP=5.12D-06 MaxDP=3.47D-04 DE=-2.82D-09 OVMax= 1.74D-04

 Cycle  19  Pass 1  IDiag  1:
 E= -1136.09115044557     Delta-E=       -0.000000001230 Rises=F Damp=F
 DIIS: error= 2.99D-07 at cycle  19 NSaved=  19.
 NSaved=19 IEnMin=19 EnMin= -1136.09115044557     IErMin=19 ErrMin= 2.99D-07
 ErrMax= 2.99D-07  0.00D+00 EMaxC= 1.00D-01 BMatC= 1.54D-11 BMatP= 4.12D-11
 IDIUse=1 WtCom= 1.00D+00 WtEn= 0.00D+00
 Coeff-Com:  0.928D-06-0.106D-05 0.207D-04-0.102D-04 0.758D-04 0.232D-03
 Coeff-Com: -0.226D-03 0.151D-03-0.232D-02 0.126D-02 0.506D-02 0.109D-01
 Coeff-Com: -0.591D-01-0.182D-01 0.170D+00-0.649D-02-0.600D+00 0.470D+00
 Coeff-Com:  0.103D+01
 Coeff:      0.928D-06-0.106D-05 0.207D-04-0.102D-04 0.758D-04 0.232D-03
 Coeff:     -0.226D-03 0.151D-03-0.232D-02 0.126D-02 0.506D-02 0.109D-01
 Coeff:     -0.591D-01-0.182D-01 0.170D+00-0.649D-02-0.600D+00 0.470D+00
 Coeff:      0.103D+01
 Gap=     0.030 Goal=   None    Shift=    0.000
 Gap=     0.043 Goal=   None    Shift=    0.000
 RMSDP=2.68D-06 MaxDP=2.31D-04 DE=-1.23D-09 OVMax= 8.47D-05

 Cycle  20  Pass 1  IDiag  1:
 E= -1136.09115044587     Delta-E=       -0.000000000304 Rises=F Damp=F
 DIIS: error= 1.81D-07 at cycle  20 NSaved=  20.
 NSaved=20 IEnMin=20 EnMin= -1136.09115044587     IErMin=20 ErrMin= 1.81D-07
 ErrMax= 1.81D-07  0.00D+00 EMaxC= 1.00D-01 BMatC= 4.64D-12 BMatP= 1.54D-11
 IDIUse=1 WtCom= 1.00D+00 WtEn= 0.00D+00
 Coeff-Com: -0.238D-05 0.307D-05 0.946D-06-0.194D-04 0.784D-04 0.376D-03
 Coeff-Com:  0.790D-03 0.210D-03-0.345D-02-0.550D-02 0.107D-01 0.105D-01
 Coeff-Com: -0.942D-02-0.157D-01-0.708D-01 0.270D+00-0.100D+00-0.494D+00
 Coeff-Com:  0.125D+00 0.128D+01
 Coeff:     -0.238D-05 0.307D-05 0.946D-06-0.194D-04 0.784D-04 0.376D-03
 Coeff:      0.790D-03 0.210D-03-0.345D-02-0.550D-02 0.107D-01 0.105D-01
 Coeff:     -0.942D-02-0.157D-01-0.708D-01 0.270D+00-0.100D+00-0.494D+00
 Coeff:      0.125D+00 0.128D+01
 Gap=     0.030 Goal=   None    Shift=    0.000
 Gap=     0.043 Goal=   None    Shift=    0.000
 RMSDP=1.85D-06 MaxDP=1.69D-04 DE=-3.04D-10 OVMax= 5.40D-05

 Cycle  21  Pass 1  IDiag  1:
 E= -1136.09115044596     Delta-E=       -0.000000000088 Rises=F Damp=F
 DIIS: error= 7.40D-08 at cycle  21 NSaved=  20.
 NSaved=20 IEnMin=20 EnMin= -1136.09115044596     IErMin=20 ErrMin= 7.40D-08
 ErrMax= 7.40D-08  0.00D+00 EMaxC= 1.00D-01 BMatC= 8.38D-13 BMatP= 4.64D-12
 IDIUse=1 WtCom= 1.00D+00 WtEn= 0.00D+00
 Coeff-Com: -0.403D-07-0.742D-05 0.794D-05-0.502D-04-0.206D-03-0.218D-04
 Coeff-Com:  0.472D-04 0.132D-02 0.920D-03-0.418D-02-0.672D-02 0.204D-01
 Coeff-Com:  0.131D-01-0.373D-01-0.667D-01 0.227D+00-0.890D-01-0.228D+00
 Coeff-Com: -0.296D+00 0.147D+01
 Coeff:     -0.403D-07-0.742D-05 0.794D-05-0.502D-04-0.206D-03-0.218D-04
 Coeff:      0.472D-04 0.132D-02 0.920D-03-0.418D-02-0.672D-02 0.204D-01
 Coeff:      0.131D-01-0.373D-01-0.667D-01 0.227D+00-0.890D-01-0.228D+00
 Coeff:     -0.296D+00 0.147D+01
 Gap=     0.030 Goal=   None    Shift=    0.000
 Gap=     0.043 Goal=   None    Shift=    0.000
 RMSDP=8.02D-07 MaxDP=8.37D-05 DE=-8.78D-11 OVMax= 1.99D-05

 Cycle  22  Pass 1  IDiag  1:
 E= -1136.09115044597     Delta-E=       -0.000000000007 Rises=F Damp=F
 DIIS: error= 2.00D-08 at cycle  22 NSaved=  20.
 NSaved=20 IEnMin=20 EnMin= -1136.09115044597     IErMin=20 ErrMin= 2.00D-08
 ErrMax= 2.00D-08  0.00D+00 EMaxC= 1.00D-01 BMatC= 1.44D-13 BMatP= 8.38D-13
 IDIUse=1 WtCom= 1.00D+00 WtEn= 0.00D+00
 Coeff-Com:  0.569D-06 0.964D-06-0.708D-06-0.135D-04-0.106D-03 0.309D-04
 Coeff-Com:  0.116D-03 0.369D-05 0.285D-03 0.619D-03-0.363D-02-0.162D-02
 Coeff-Com:  0.237D-01-0.394D-01-0.293D-01 0.121D+00 0.899D-02-0.187D+00
 Coeff-Com: -0.201D+00 0.131D+01
 Coeff:      0.569D-06 0.964D-06-0.708D-06-0.135D-04-0.106D-03 0.309D-04
 Coeff:      0.116D-03 0.369D-05 0.285D-03 0.619D-03-0.363D-02-0.162D-02
 Coeff:      0.237D-01-0.394D-01-0.293D-01 0.121D+00 0.899D-02-0.187D+00
 Coeff:     -0.201D+00 0.131D+01
 Gap=     0.030 Goal=   None    Shift=    0.000
 Gap=     0.043 Goal=   None    Shift=    0.000
 RMSDP=2.21D-07 MaxDP=1.73D-05 DE=-7.28D-12 OVMax= 4.69D-06

 Cycle  23  Pass 1  IDiag  1:
 E= -1136.09115044597     Delta-E=        0.000000000000 Rises=F Damp=F
 DIIS: error= 8.55D-09 at cycle  23 NSaved=  20.
 NSaved=20 IEnMin=19 EnMin= -1136.09115044597     IErMin=20 ErrMin= 8.55D-09
 ErrMax= 8.55D-09  0.00D+00 EMaxC= 1.00D-01 BMatC= 2.64D-14 BMatP= 1.44D-13
 IDIUse=1 WtCom= 1.00D+00 WtEn= 0.00D+00
 Coeff-Com: -0.230D-05 0.465D-05 0.252D-04 0.639D-04 0.519D-04-0.101D-03
 Coeff-Com: -0.480D-03 0.159D-03 0.108D-02-0.160D-02-0.214D-02 0.776D-03
 Coeff-Com:  0.145D-01-0.261D-01 0.506D-02 0.162D-01 0.674D-01-0.195D+00
 Coeff-Com: -0.153D+00 0.127D+01
 Coeff:     -0.230D-05 0.465D-05 0.252D-04 0.639D-04 0.519D-04-0.101D-03
 Coeff:     -0.480D-03 0.159D-03 0.108D-02-0.160D-02-0.214D-02 0.776D-03
 Coeff:      0.145D-01-0.261D-01 0.506D-02 0.162D-01 0.674D-01-0.195D+00
 Coeff:     -0.153D+00 0.127D+01
 Gap=     0.030 Goal=   None    Shift=    0.000
 Gap=     0.043 Goal=   None    Shift=    0.000
 RMSDP=1.14D-07 MaxDP=1.13D-05 DE= 4.55D-13 OVMax= 2.04D-06

 Cycle  24  Pass 1  IDiag  1:
 E= -1136.09115044598     Delta-E=       -0.000000000009 Rises=F Damp=F
 DIIS: error= 3.51D-09 at cycle  24 NSaved=  20.
 NSaved=20 IEnMin=20 EnMin= -1136.09115044598     IErMin=20 ErrMin= 3.51D-09
 ErrMax= 3.51D-09  0.00D+00 EMaxC= 1.00D-01 BMatC= 6.93D-15 BMatP= 2.64D-14
 IDIUse=1 WtCom= 1.00D+00 WtEn= 0.00D+00
 Large coefficients: NSaved= 20 BigCof=    0.00 CofMax=   10.00 Det=-8.01D-15
 Inversion failed.  Reducing to 19 matrices.
 Large coefficients: NSaved= 19 BigCof=    0.00 CofMax=   10.00 Det=-8.30D-15
 Inversion failed.  Reducing to 18 matrices.
 Large coefficients: NSaved= 18 BigCof=    0.00 CofMax=   10.00 Det=-8.56D-15
 Inversion failed.  Reducing to 17 matrices.
 Large coefficients: NSaved= 17 BigCof=    0.00 CofMax=   10.00 Det=-8.93D-15
 Inversion failed.  Reducing to 16 matrices.
 Large coefficients: NSaved= 16 BigCof=    0.00 CofMax=   10.00 Det=-9.16D-15
 Inversion failed.  Reducing to 15 matrices.
 Coeff-Com:  0.152D-03-0.190D-03-0.252D-03 0.795D-03 0.810D-03-0.402D-02
 Coeff-Com:  0.680D-02-0.752D-03-0.159D-01 0.864D-02 0.267D-01 0.149D-01
 Coeff-Com: -0.233D+00 0.233D-01 0.117D+01
 Coeff:      0.152D-03-0.190D-03-0.252D-03 0.795D-03 0.810D-03-0.402D-02
 Coeff:      0.680D-02-0.752D-03-0.159D-01 0.864D-02 0.267D-01 0.149D-01
 Coeff:     -0.233D+00 0.233D-01 0.117D+01
 Gap=     0.030 Goal=   None    Shift=    0.000
 Gap=     0.043 Goal=   None    Shift=    0.000
 RMSDP=6.12D-08 MaxDP=3.72D-06 DE=-8.64D-12 OVMax= 1.75D-06

 Cycle  25  Pass 1  IDiag  1:
 E= -1136.09115044599     Delta-E=       -0.000000000008 Rises=F Damp=F
 DIIS: error= 2.79D-09 at cycle  25 NSaved=  16.
 NSaved=16 IEnMin=16 EnMin= -1136.09115044599     IErMin=16 ErrMin= 2.79D-09
 ErrMax= 2.79D-09  0.00D+00 EMaxC= 1.00D-01 BMatC= 2.00D-15 BMatP= 6.93D-15
 IDIUse=1 WtCom= 1.00D+00 WtEn= 0.00D+00
 Large coefficients: NSaved= 16 BigCof=    0.00 CofMax=   10.00 Det=-2.79D-15
 Inversion failed.  Reducing to 15 matrices.
 Coeff-Com:  0.379D-04 0.309D-05 0.862D-04 0.605D-04-0.145D-02 0.333D-02
 Coeff-Com:  0.255D-02-0.120D-01 0.104D-02 0.107D-01 0.340D-01-0.103D+00
 Coeff-Com: -0.128D+00 0.359D+00 0.834D+00
 Coeff:      0.379D-04 0.309D-05 0.862D-04 0.605D-04-0.145D-02 0.333D-02
 Coeff:      0.255D-02-0.120D-01 0.104D-02 0.107D-01 0.340D-01-0.103D+00
 Coeff:     -0.128D+00 0.359D+00 0.834D+00
 Gap=     0.030 Goal=   None    Shift=    0.000
 Gap=     0.043 Goal=   None    Shift=    0.000
 RMSDP=2.28D-08 MaxDP=1.61D-06 DE=-8.19D-12 OVMax= 2.91D-07

 Cycle  26  Pass 1  IDiag  1:
 E= -1136.09115044597     Delta-E=        0.000000000013 Rises=F Damp=F
 DIIS: error= 1.43D-09 at cycle  26 NSaved=  16.
 NSaved=16 IEnMin=15 EnMin= -1136.09115044599     IErMin=16 ErrMin= 1.43D-09
 ErrMax= 1.43D-09  0.00D+00 EMaxC= 1.00D-01 BMatC= 5.75D-16 BMatP= 2.00D-15
 IDIUse=1 WtCom= 1.00D+00 WtEn= 0.00D+00
 Large coefficients: NSaved= 16 BigCof=    0.00 CofMax=   10.00 Det=-1.46D-15
 Inversion failed.  Reducing to 15 matrices.
 Coeff-Com: -0.180D-04 0.801D-04 0.155D-04-0.110D-03-0.310D-03 0.711D-03
 Coeff-Com:  0.131D-03-0.871D-04-0.351D-02 0.375D-02 0.277D-01-0.635D-01
 Coeff-Com: -0.165D+00 0.234D+00 0.965D+00
 Coeff:     -0.180D-04 0.801D-04 0.155D-04-0.110D-03-0.310D-03 0.711D-03
 Coeff:      0.131D-03-0.871D-04-0.351D-02 0.375D-02 0.277D-01-0.635D-01
 Coeff:     -0.165D+00 0.234D+00 0.965D+00
 Gap=     0.030 Goal=   None    Shift=    0.000
 Gap=     0.043 Goal=   None    Shift=    0.000
 RMSDP=1.32D-08 MaxDP=7.50D-07 DE= 1.30D-11 OVMax= 2.13D-07

 Cycle  27  Pass 1  IDiag  1:
 E= -1136.09115044598     Delta-E=       -0.000000000004 Rises=F Damp=F
 DIIS: error= 5.51D-10 at cycle  27 NSaved=  16.
 NSaved=16 IEnMin=14 EnMin= -1136.09115044599     IErMin=16 ErrMin= 5.51D-10
 ErrMax= 5.51D-10  0.00D+00 EMaxC= 1.00D-01 BMatC= 1.35D-16 BMatP= 5.75D-16
 IDIUse=1 WtCom= 1.00D+00 WtEn= 0.00D+00
 Large coefficients: NSaved= 16 BigCof=    0.00 CofMax=   10.00 Det=-2.88D-16
 Inversion failed.  Reducing to 15 matrices.
 Coeff-Com: -0.717D-04-0.309D-04 0.381D-03-0.962D-03 0.412D-03 0.200D-02
 Coeff-Com: -0.110D-02-0.325D-02-0.357D-02 0.262D-01 0.216D-01-0.141D+00
 Coeff-Com: -0.103D+00 0.316D+00 0.885D+00
 Coeff:     -0.717D-04-0.309D-04 0.381D-03-0.962D-03 0.412D-03 0.200D-02
 Coeff:     -0.110D-02-0.325D-02-0.357D-02 0.262D-01 0.216D-01-0.141D+00
 Coeff:     -0.103D+00 0.316D+00 0.885D+00
 Gap=     0.030 Goal=   None    Shift=    0.000
 Gap=     0.043 Goal=   None    Shift=    0.000
 RMSDP=8.91D-09 MaxDP=8.09D-07 DE=-4.32D-12 OVMax= 1.80D-07

 SCF Done:  E(UB3LYP) =  -1136.09115045     A.U. after   27 cycles
            NFock= 27  Conv=0.89D-08     -V/T= 2.0025
 <Sx>= 0.0000 <Sy>= 0.0000 <Sz>= 0.5000 <S**2>= 0.7592 S= 0.5046
 <L.S>= 0.000000000000E+00
 KE= 1.133230025085D+03 PE=-3.430825106429D+03 EE= 8.107855229488D+02
 Annihilation of the first spin contaminant:
 S**2 before annihilation     0.7592,   after     0.7501
 Leave Link  502 at Mon Nov 13 17:49:50 2023, MaxMem=  1879048192 cpu:             257.3 elap:              22.0
 (Enter /home/sekinelabo/g16/l601.exe)
 Copying SCF densities to generalized density rwf, IOpCl= 1 IROHF=0.

 **********************************************************************

            Population analysis using the SCF Density.

 **********************************************************************

 Orbital symmetries:
 Alpha Orbitals:
       Occupied  (A) (A) (A) (A) (A) (A) (A) (A) (A) (A) (A) (A)
                 (A) (A) (A) (A) (A) (A) (A) (A) (A) (A) (A) (A)
                 (A) (A) (A) (A) (A) (A) (A) (A) (A) (A) (A) (A)
                 (A) (A) (A)
       Virtual   (A) (A) (A) (A) (A) (A) (A) (A) (A) (A) (A) (A)
                 (A) (A) (A) (A) (A) (A) (A) (A) (A) (A) (A) (A)
                 (A) (A) (A) (A) (A) (A) (A) (A) (A) (A) (A) (A)
                 (A) (A) (A) (A) (A) (A) (A) (A) (A) (A) (A) (A)
                 (A) (A) (A) (A) (A) (A) (A) (A) (A) (A) (A) (A)
                 (A) (A) (A) (A) (A) (A) (A) (A) (A) (A) (A) (A)
                 (A) (A) (A) (A) (A) (A) (A) (A) (A) (A) (A) (A)
                 (A) (A) (A) (A) (A) (A) (A) (A) (A) (A) (A) (A)
                 (A) (A) (A) (A) (A) (A) (A) (A) (A) (A) (A) (A)
                 (A) (A) (A) (A) (A) (A) (A) (A) (A) (A) (A) (A)
                 (A) (A) (A) (A) (A) (A) (A) (A) (A) (A) (A) (A)
                 (A) (A) (A) (A) (A) (A) (A) (A) (A) (A) (A) (A)
                 (A) (A) (A) (A) (A) (A) (A) (A) (A) (A) (A) (A)
                 (A) (A) (A) (A) (A) (A) (A) (A) (A) (A) (A) (A)
                 (A) (A) (A)
 Beta  Orbitals:
       Occupied  (A) (A) (A) (A) (A) (A) (A) (A) (A) (A) (A) (A)
                 (A) (A) (A) (A) (A) (A) (A) (A) (A) (A) (A) (A)
                 (A) (A) (A) (A) (A) (A) (A) (A) (A) (A) (A) (A)
                 (A) (A)
       Virtual   (A) (A) (A) (A) (A) (A) (A) (A) (A) (A) (A) (A)
                 (A) (A) (A) (A) (A) (A) (A) (A) (A) (A) (A) (A)
                 (A) (A) (A) (A) (A) (A) (A) (A) (A) (A) (A) (A)
                 (A) (A) (A) (A) (A) (A) (A) (A) (A) (A) (A) (A)
                 (A) (A) (A) (A) (A) (A) (A) (A) (A) (A) (A) (A)
                 (A) (A) (A) (A) (A) (A) (A) (A) (A) (A) (A) (A)
                 (A) (A) (A) (A) (A) (A) (A) (A) (A) (A) (A) (A)
                 (A) (A) (A) (A) (A) (A) (A) (A) (A) (A) (A) (A)
                 (A) (A) (A) (A) (A) (A) (A) (A) (A) (A) (A) (A)
                 (A) (A) (A) (A) (A) (A) (A) (A) (A) (A) (A) (A)
                 (A) (A) (A) (A) (A) (A) (A) (A) (A) (A) (A) (A)
                 (A) (A) (A) (A) (A) (A) (A) (A) (A) (A) (A) (A)
                 (A) (A) (A) (A) (A) (A) (A) (A) (A) (A) (A) (A)
                 (A) (A) (A) (A) (A) (A) (A) (A) (A) (A) (A) (A)
                 (A) (A) (A) (A)
 The electronic state is 2-A.
 Alpha  occ. eigenvalues --  -38.45977 -38.44766 -38.43934 -38.43410 -38.43379
 Alpha  occ. eigenvalues --  -38.43131 -38.42850  -2.21852  -2.20653  -2.20111
 Alpha  occ. eigenvalues --   -2.19511  -2.19279  -2.19237  -2.18852  -1.15562
 Alpha  occ. eigenvalues --   -1.15500  -1.15477  -1.14383  -1.14301  -1.14268
 Alpha  occ. eigenvalues --   -1.13873  -1.13787  -1.13742  -1.13271  -1.13198
 Alpha  occ. eigenvalues --   -1.13176  -1.13027  -1.12916  -1.12899  -1.12888
 Alpha  occ. eigenvalues --   -1.12874  -1.12770  -1.12511  -1.12487  -1.12463
 Alpha  occ. eigenvalues --   -0.19241  -0.15171  -0.11531  -0.10168
 Alpha virt. eigenvalues --   -0.07189  -0.05641  -0.03752  -0.03678  -0.02683
 Alpha virt. eigenvalues --   -0.01869  -0.01756  -0.01188  -0.00638  -0.00300
 Alpha virt. eigenvalues --   -0.00104   0.00198   0.00566   0.00628   0.00718
 Alpha virt. eigenvalues --    0.00928   0.01007   0.01140   0.01334   0.01426
 Alpha virt. eigenvalues --    0.01464   0.01608   0.01815   0.01972   0.02012
 Alpha virt. eigenvalues --    0.02084   0.02257   0.02361   0.02551   0.02676
 Alpha virt. eigenvalues --    0.02700   0.02889   0.02966   0.03032   0.03175
 Alpha virt. eigenvalues --    0.03235   0.03349   0.03415   0.03681   0.03726
 Alpha virt. eigenvalues --    0.03940   0.04142   0.04512   0.04700   0.04831
 Alpha virt. eigenvalues --    0.05316   0.05402   0.05630   0.05733   0.05868
 Alpha virt. eigenvalues --    0.05968   0.06525   0.06820   0.07050   0.07420
 Alpha virt. eigenvalues --    0.07704   0.07990   0.08206   0.08398   0.08621
 Alpha virt. eigenvalues --    0.09217   0.09646   0.10047   0.11056   0.11341
 Alpha virt. eigenvalues --    0.11795   0.12473   0.12532   0.12793   0.13203
 Alpha virt. eigenvalues --    0.13870   0.13970   0.14085   0.14527   0.15280
 Alpha virt. eigenvalues --    0.15515   0.15959   0.16155   0.18006   0.18208
 Alpha virt. eigenvalues --    0.24450   0.27286   0.27377   0.29208   0.29424
 Alpha virt. eigenvalues --    0.30155   0.30952   0.31152   0.32267   0.33427
 Alpha virt. eigenvalues --    0.34242   0.35481   0.35526   0.36866   0.37671
 Alpha virt. eigenvalues --    0.38347   0.39318   0.40101   0.42106   0.42284
 Alpha virt. eigenvalues --    0.42989   0.43321   0.43642   0.44265   0.44621
 Alpha virt. eigenvalues --    0.44914   0.45369   0.45748   0.46054   0.46548
 Alpha virt. eigenvalues --    0.46834   0.47296   0.48140   0.48575   0.48997
 Alpha virt. eigenvalues --    0.49613   0.49959   0.51849   0.52205   0.52582
 Alpha virt. eigenvalues --    0.53693   0.54636   0.55425   0.56120   0.57414
 Alpha virt. eigenvalues --    0.65112   0.65645   0.68516   0.69668   0.70521
 Alpha virt. eigenvalues --    0.71883   0.72270   0.73420   0.76830   0.79318
 Alpha virt. eigenvalues --    0.81138   2.10154   2.13260   2.16799   2.18578
 Alpha virt. eigenvalues --    2.26775   2.27046   2.34845   4.39819   4.41068
 Alpha virt. eigenvalues --    4.41820   4.42253   4.42940   4.43826   4.44378
 Alpha virt. eigenvalues --    4.44714   4.45978   4.46604   4.48125   4.52318
 Alpha virt. eigenvalues --    4.55837   4.59342   4.60635   4.65693   4.66909
 Alpha virt. eigenvalues --    4.69251   4.75614   4.78389   4.83078  96.31100
 Alpha virt. eigenvalues --   96.35263  96.40877  96.42473  96.54200  96.54252
 Alpha virt. eigenvalues --   96.63780
  Beta  occ. eigenvalues --  -38.45968 -38.44765 -38.43909 -38.43370 -38.43350
  Beta  occ. eigenvalues --  -38.43059 -38.42836  -2.21835  -2.20652  -2.20076
  Beta  occ. eigenvalues --   -2.19402  -2.19264  -2.19109  -2.18833  -1.15552
  Beta  occ. eigenvalues --   -1.15487  -1.15462  -1.14382  -1.14302  -1.14255
  Beta  occ. eigenvalues --   -1.13852  -1.13736  -1.13681  -1.13204  -1.13129
  Beta  occ. eigenvalues --   -1.13104  -1.12979  -1.12896  -1.12849  -1.12825
  Beta  occ. eigenvalues --   -1.12795  -1.12684  -1.12495  -1.12479  -1.12400
  Beta  occ. eigenvalues --   -0.18565  -0.14958  -0.11274
  Beta virt. eigenvalues --   -0.06982  -0.06240  -0.05476  -0.03696  -0.03217
  Beta virt. eigenvalues --   -0.02542  -0.01425  -0.01174  -0.00696  -0.00574
  Beta virt. eigenvalues --   -0.00053   0.00062   0.00242   0.00679   0.00710
  Beta virt. eigenvalues --    0.00749   0.00999   0.01127   0.01284   0.01447
  Beta virt. eigenvalues --    0.01497   0.01653   0.01774   0.01910   0.02041
  Beta virt. eigenvalues --    0.02070   0.02195   0.02347   0.02427   0.02610
  Beta virt. eigenvalues --    0.02699   0.02762   0.02966   0.03028   0.03122
  Beta virt. eigenvalues --    0.03232   0.03286   0.03417   0.03522   0.03711
  Beta virt. eigenvalues --    0.03760   0.04192   0.04290   0.04632   0.04802
  Beta virt. eigenvalues --    0.04905   0.05465   0.05516   0.05756   0.05811
  Beta virt. eigenvalues --    0.06058   0.06217   0.06698   0.06922   0.07091
  Beta virt. eigenvalues --    0.07541   0.07822   0.08161   0.08336   0.08471
  Beta virt. eigenvalues --    0.08798   0.09361   0.09691   0.10399   0.11266
  Beta virt. eigenvalues --    0.11595   0.12117   0.12654   0.12766   0.12906
  Beta virt. eigenvalues --    0.13372   0.14032   0.14189   0.14506   0.14764
  Beta virt. eigenvalues --    0.15352   0.15911   0.16379   0.16595   0.18115
  Beta virt. eigenvalues --    0.18495   0.24641   0.27527   0.27663   0.29506
  Beta virt. eigenvalues --    0.29632   0.30291   0.31150   0.31392   0.32812
  Beta virt. eigenvalues --    0.33820   0.34307   0.35708   0.35777   0.37129
  Beta virt. eigenvalues --    0.37927   0.38493   0.39492   0.40386   0.42262
  Beta virt. eigenvalues --    0.42366   0.43097   0.43515   0.43724   0.44418
  Beta virt. eigenvalues --    0.44702   0.45061   0.45537   0.45891   0.46259
  Beta virt. eigenvalues --    0.46706   0.47018   0.47552   0.48217   0.48722
  Beta virt. eigenvalues --    0.49284   0.49961   0.50106   0.52226   0.52340
  Beta virt. eigenvalues --    0.52938   0.53830   0.54911   0.55813   0.56326
  Beta virt. eigenvalues --    0.57558   0.65423   0.65930   0.68771   0.69855
  Beta virt. eigenvalues --    0.70567   0.72120   0.72470   0.73642   0.76833
  Beta virt. eigenvalues --    0.79488   0.81260   2.10194   2.13326   2.16815
  Beta virt. eigenvalues --    2.18637   2.27057   2.27220   2.34953   4.39842
  Beta virt. eigenvalues --    4.41135   4.41859   4.42318   4.42974   4.43902
  Beta virt. eigenvalues --    4.44409   4.44789   4.45992   4.46611   4.48194
  Beta virt. eigenvalues --    4.52350   4.55911   4.59411   4.60653   4.65714
  Beta virt. eigenvalues --    4.67015   4.69260   4.75689   4.78420   4.83135
  Beta virt. eigenvalues --   96.31118  96.35289  96.40883  96.42492  96.54254
  Beta virt. eigenvalues --   96.54334  96.63818
          Condensed to atoms (all electrons):
               1          2          3          4          5          6
     1  Na  14.096073  -0.715563  -0.718011   0.563025  -1.862653   0.334520
     2  Na  -0.715563  12.145022   0.285302  -1.331970   0.723291   0.033378
     3  Na  -0.718011   0.285302  11.184196  -0.659334   0.929920  -0.191421
     4  Na   0.563025  -1.331970  -0.659334  14.218670  -2.123864  -0.576484
     5  Na  -1.862653   0.723291   0.929920  -2.123864  15.654234  -0.589224
     6  Na   0.334520   0.033378  -0.191421  -0.576484  -0.589224  11.469491
     7  Na  -0.165453  -0.378701  -0.051846   1.010061  -1.107341   0.133858
               7
     1  Na  -0.165453
     2  Na  -0.378701
     3  Na  -0.051846
     4  Na   1.010061
     5  Na  -1.107341
     6  Na   0.133858
     7  Na  11.149331
          Atomic-Atomic Spin Densities.
               1          2          3          4          5          6
     1  Na   1.214193  -0.198267  -0.142176  -0.391893  -0.253865   0.167095
     2  Na  -0.198267  -0.125154   0.065686   0.196058   0.057789  -0.008633
     3  Na  -0.142176   0.065686   0.169772  -0.052421   0.024158  -0.045386
     4  Na  -0.391893   0.196058  -0.052421   0.003127   0.522466   0.128169
     5  Na  -0.253865   0.057789   0.024158   0.522466   0.094518  -0.091347
     6  Na   0.167095  -0.008633  -0.045386   0.128169  -0.091347  -0.179340
     7  Na  -0.156147   0.118010   0.025655  -0.108748   0.075183  -0.015939
               7
     1  Na  -0.156147
     2  Na   0.118010
     3  Na   0.025655
     4  Na  -0.108748
     5  Na   0.075183
     6  Na  -0.015939
     7  Na  -0.008012
 Mulliken charges and spin densities:
               1          2
     1  Na  -0.531939   0.238940
     2  Na   0.239241   0.105489
     3  Na   0.221194   0.045289
     4  Na  -0.100103   0.296758
     5  Na  -0.624364   0.428903
     6  Na   0.385882  -0.045381
     7  Na   0.410090  -0.069998
 Sum of Mulliken charges =  -0.00000   1.00000
 Mulliken charges and spin densities with hydrogens summed into heavy atoms:
               1          2
     1  Na  -0.531939   0.238940
     2  Na   0.239241   0.105489
     3  Na   0.221194   0.045289
     4  Na  -0.100103   0.296758
     5  Na  -0.624364   0.428903
     6  Na   0.385882  -0.045381
     7  Na   0.410090  -0.069998
 Electronic spatial extent (au):  <R**2>=           2542.0526
 Charge=              0.0000 electrons
 Dipole moment (field-independent basis, Debye):
    X=              2.3737    Y=              0.2955    Z=              0.5558  Tot=              2.4558
 Quadrupole moment (field-independent basis, Debye-Ang):
   XX=            -53.6776   YY=            -64.5826   ZZ=            -75.4958
   XY=              0.9617   XZ=              0.1315   YZ=              2.3970
 Traceless Quadrupole moment (field-independent basis, Debye-Ang):
   XX=             10.9078   YY=              0.0027   ZZ=            -10.9104
   XY=              0.9617   XZ=              0.1315   YZ=              2.3970
 Octapole moment (field-independent basis, Debye-Ang**2):
  XXX=             52.1636  YYY=             -0.2987  ZZZ=              2.6603  XYY=             20.7560
  XXY=             12.6494  XXZ=             13.2567  XZZ=              2.7080  YZZ=              2.0939
  YYZ=              8.1433  XYZ=              0.2047
 Hexadecapole moment (field-independent basis, Debye-Ang**3):
 XXXX=          -2432.9187 YYYY=          -1002.5734 ZZZZ=           -626.5478 XXXY=            159.4548
 XXXZ=              7.0743 YYYX=            -63.8360 YYYZ=             41.5251 ZZZX=             -4.9685
 ZZZY=             11.0019 XXYY=           -529.0134 XXZZ=           -592.3714 YYZZ=           -291.8168
 XXYZ=             -4.1316 YYXZ=              2.3440 ZZXY=             -9.0906
 N-N= 3.507184079488D+02 E-N=-3.430825106571D+03  KE= 1.133230025085D+03
                          Isotropic Fermi Contact Couplings
        Atom                 a.u.       MegaHertz       Gauss      10(-4) cm-1
     1  Na(23)             0.27800     328.88541     117.35449     109.70437
     2  Na(23)            -0.00813      -9.61321      -3.43023      -3.20662
     3  Na(23)             0.00361       4.26677       1.52249       1.42324
     4  Na(23)             0.23370     276.47568      98.65340      92.22236
     5  Na(23)             0.00130       1.53724       0.54853       0.51277
     6  Na(23)             0.03328      39.36801      14.04749      13.13175
     7  Na(23)            -0.01303     -15.40911      -5.49836      -5.13993
 --------------------------------------------------------
       Center         ----  Spin Dipole Couplings  ----
                      3XX-RR        3YY-RR        3ZZ-RR
 --------------------------------------------------------
     1   Atom        0.007603     -0.004293     -0.003310
     2   Atom       -0.028141     -0.009930      0.038071
     3   Atom       -0.013359     -0.009278      0.022637
     4   Atom       -0.000385     -0.005308      0.005693
     5   Atom       -0.038452     -0.029371      0.067823
     6   Atom       -0.002056     -0.006532      0.008588
     7   Atom        0.002616     -0.006009      0.003392
 --------------------------------------------------------
                        XY            XZ            YZ
 --------------------------------------------------------
     1   Atom        0.007497      0.015221      0.006391
     2   Atom       -0.002817      0.003555     -0.030161
     3   Atom       -0.001933      0.003633     -0.014663
     4   Atom        0.008857      0.000232      0.001318
     5   Atom        0.001620     -0.008825     -0.039065
     6   Atom        0.001526     -0.001255     -0.001534
     7   Atom        0.001129     -0.009973     -0.003766
 --------------------------------------------------------


 ---------------------------------------------------------------------------------
              Anisotropic Spin Dipole Couplings in Principal Axis System
 ---------------------------------------------------------------------------------

       Atom             a.u.   MegaHertz   Gauss  10(-4) cm-1        Axes

              Baa    -0.0141    -1.997    -0.713    -0.666 -0.5378 -0.1310  0.8329
     1 Na(23) Bbb    -0.0078    -1.107    -0.395    -0.369 -0.3631  0.9275 -0.0885
              Bcc     0.0220     3.104     1.108     1.035  0.7609  0.3500  0.5464
 
              Baa    -0.0286    -4.042    -1.442    -1.348  0.9711  0.2324  0.0533
     2 Na(23) Bbb    -0.0242    -3.423    -1.221    -1.142 -0.2321  0.8702  0.4345
              Bcc     0.0529     7.464     2.663     2.490  0.0546 -0.4343  0.8991
 
              Baa    -0.0152    -2.140    -0.764    -0.714  0.3228  0.8924  0.3152
     3 Na(23) Bbb    -0.0136    -1.919    -0.685    -0.640  0.9415 -0.2688 -0.2032
              Bcc     0.0287     4.060     1.449     1.354  0.0966 -0.3624  0.9270
 
              Baa    -0.0121    -1.707    -0.609    -0.569 -0.6021  0.7968 -0.0512
     4 Na(23) Bbb     0.0050     0.708     0.253     0.236 -0.4985 -0.3251  0.8036
              Bcc     0.0071     0.998     0.356     0.333  0.6237  0.5094  0.5929
 
              Baa    -0.0436    -6.152    -2.195    -2.052  0.2985  0.8930  0.3368
     5 Na(23) Bbb    -0.0387    -5.460    -1.948    -1.821  0.9516 -0.3055 -0.0332
              Bcc     0.0822    11.612     4.143     3.873 -0.0733 -0.3304  0.9410
 
              Baa    -0.0071    -1.000    -0.357    -0.334 -0.2733  0.9592  0.0720
     6 Na(23) Bbb    -0.0018    -0.260    -0.093    -0.087  0.9534  0.2601  0.1530
              Bcc     0.0089     1.260     0.450     0.420 -0.1280 -0.1105  0.9856
 
              Baa    -0.0086    -1.212    -0.433    -0.404  0.4595  0.6629  0.5911
     7 Na(23) Bbb    -0.0050    -0.710    -0.253    -0.237 -0.5818  0.7275 -0.3637
              Bcc     0.0136     1.922     0.686     0.641 -0.6711 -0.1768  0.7200
 

 ---------------------------------------------------------------------------------

 No NMR shielding tensors so no spin-rotation constants.
 Leave Link  601 at Mon Nov 13 17:49:50 2023, MaxMem=  1879048192 cpu:               2.7 elap:               0.2
 (Enter /home/sekinelabo/g16/l701.exe)
 ... and contract with generalized density number  0.
 Compute integral first derivatives.
 Leave Link  701 at Mon Nov 13 17:49:51 2023, MaxMem=  1879048192 cpu:               1.7 elap:               0.1
 (Enter /home/sekinelabo/g16/l702.exe)
 L702 exits ... SP integral derivatives will be done elsewhere.
 Leave Link  702 at Mon Nov 13 17:49:51 2023, MaxMem=  1879048192 cpu:               0.5 elap:               0.0
 (Enter /home/sekinelabo/g16/l703.exe)
 Integral derivatives from FoFJK, PRISM(SPDF).
 Compute integral first derivatives, UseDBF=F ICtDFT=           0.
 Calling FoFJK, ICntrl=      2127 FMM=F ISym2X=0 I1Cent= 0 IOpClX= 1 NMat=1 NMatS=1 NMatT=0.
 FoFJK:  IHMeth= 1 ICntrl=    2127 DoSepK=F KAlg= 0 I1Cent=           0 FoldK=F
 IRaf=         0 NMat=       1 IRICut=       1 DoRegI=T DoRafI=F ISym2E= 0 IDoP0=0 IntGTp=1.
 FoFCou: FMM=F IPFlag=           0 FMFlag=      100000 FMFlg1=         800
         NFxFlg=           0 DoJE=F BraDBF=F KetDBF=F FulRan=T
         wScrn=  0.000000 ICntrl=      2127 IOpCl=  1 I1Cent=           0 NGrid=           0
         NMat0=    1 NMatS0=      1 NMatT0=    0 NMatD0=    1 NMtDS0=    0 NMtDT0=    0
 Symmetry not used in FoFCou.
 Leave Link  703 at Mon Nov 13 17:49:53 2023, MaxMem=  1879048192 cpu:              34.9 elap:               2.2
 (Enter /home/sekinelabo/g16/l716.exe)
 Dipole        = 9.33895948D-01 1.16241915D-01 2.18682191D-01
 ***** Axes restored to original set *****
 -------------------------------------------------------------------
 Center     Atomic                   Forces (Hartrees/Bohr)
 Number     Number              X              Y              Z
 -------------------------------------------------------------------
      1       11           0.000254794   -0.007525548    0.016453796
      2       11           0.004977042    0.015689694    0.004172376
      3       11          -0.007549770   -0.007855597   -0.001500815
      4       11          -0.007488181    0.004263154   -0.015338931
      5       11           0.002891350   -0.000394954   -0.005963754
      6       11           0.004194297    0.005628181    0.000001337
      7       11           0.002720468   -0.009804931    0.002175993
 -------------------------------------------------------------------
 Cartesian Forces:  Max     0.016453796 RMS     0.007708646
 Z-matrix is all fixed cartesians, so copy forces.
 Force constants in Cartesian coordinates: 
                1             2             3             4             5 
      1  0.926338D-01
      2  0.169675D-01  0.884642D-01
      3  0.115976D-01 -0.268333D-01  0.136187D+00
      4 -0.139790D-01 -0.970248D-02 -0.569825D-02  0.564090D-01
      5 -0.633263D-02 -0.429839D-01 -0.552860D-02  0.118711D-01  0.103082D+00
      6  0.387599D-02  0.310946D-01 -0.169630D-01  0.819973D-02  0.153668D-01
      7 -0.282571D-01 -0.137555D-01 -0.162980D-02  0.451024D-03 -0.133648D-02
      8 -0.235914D-02 -0.149380D-01  0.814592D-02 -0.763109D-02 -0.641036D-03
      9 -0.266844D-01 -0.101408D-01 -0.303267D-01 -0.732581D-03 -0.326752D-02
     10 -0.150332D-01 -0.141519D-02 -0.213383D-02 -0.169544D-01 -0.413591D-03
     11  0.348930D-02 -0.140638D-01  0.159303D-01 -0.216673D-01 -0.224635D-01
     12 -0.139675D-01  0.121176D-01 -0.485279D-01 -0.105180D-01  0.178891D-02
     13 -0.324404D-01  0.482067D-02  0.664422D-03 -0.250039D-01 -0.327289D-02
     14 -0.109670D-01 -0.198684D-01  0.861825D-02  0.187290D-01 -0.400838D-01
     15  0.169166D-01 -0.405486D-02 -0.493880D-01  0.219408D-02 -0.778807D-02
     16 -0.888182D-03 -0.668285D-03 -0.112246D-02 -0.216682D-02 -0.982647D-03
     17  0.276733D-03  0.102462D-02  0.488011D-03  0.618689D-02  0.305976D-02
     18  0.503017D-02  0.241292D-02  0.612462D-02  0.300967D-02  0.938033D-03
     19 -0.203590D-02  0.375330D-02 -0.167771D-02  0.124416D-02  0.467191D-03
     20 -0.107470D-02  0.236532D-02 -0.820574D-03  0.221394D-02  0.299970D-04
     21  0.323156D-02 -0.459615D-02  0.289360D-02  0.354540D-02 -0.150950D-02
                6             7             8             9            10 
      6  0.614515D-01
      7  0.145346D-02  0.531563D-01
      8 -0.194476D-02  0.265898D-01  0.373920D-01
      9  0.859385D-02  0.800489D-02 -0.900897D-02  0.424568D-01
     10 -0.112570D-01 -0.206267D-01 -0.178832D-01  0.164092D-01  0.967616D-01
     11 -0.293877D-01 -0.451625D-02 -0.252705D-01  0.223188D-01  0.166331D-01
     12 -0.329317D-01 -0.795890D-02  0.445676D-02 -0.275907D-01  0.232043D-01
     13 -0.224588D-02 -0.471938D-02  0.126983D-02  0.300246D-02 -0.453181D-01
     14 -0.188012D-01 -0.693429D-02  0.330154D-02  0.954726D-04 -0.347241D-03
     15 -0.294015D-01  0.143727D-03 -0.169491D-02  0.686040D-02 -0.242676D-01
     16 -0.549603D-03  0.106046D-04 -0.427225D-04 -0.234132D-04 -0.335952D-03
     17  0.102542D-02 -0.323108D-04  0.110217D-03  0.127590D-04  0.209890D-02
     18  0.167729D-02 -0.113158D-04  0.791148D-04  0.123418D-03 -0.144844D-02
     19  0.523323D-03 -0.147566D-04  0.564862D-04  0.238806D-04  0.150679D-02
     20  0.264697D-02 -0.149759D-04  0.457578D-04 -0.972725D-05  0.132718D-02
     21  0.757361D-02 -0.205246D-05 -0.331520D-04 -0.117078D-03 -0.506499D-03
               11            12            13            14            15 
     11  0.951600D-01
     12 -0.218554D-01  0.129435D+00
     13  0.212011D-02  0.102553D-01  0.175821D+00
     14 -0.475522D-01  0.438385D-02 -0.324844D-05  0.178352D+00
     15  0.135729D-01 -0.267736D-01  0.838504D-02  0.145484D-02  0.158867D+00
     16 -0.183693D-02 -0.260985D-03 -0.373707D-01 -0.114771D-01 -0.671480D-03
     17  0.808815D-02 -0.101943D-02 -0.383185D-02 -0.346807D-01 -0.918864D-03
     18 -0.222622D-02  0.332776D-02 -0.112586D-01 -0.563536D-02 -0.279129D-01
     19  0.577793D-02 -0.754138D-03 -0.309684D-01  0.109999D-01 -0.270029D-02
     20  0.610178D-02  0.127669D-03 -0.110263D-02 -0.394681D-01 -0.571045D-03
     21  0.164731D-02  0.306087D-02 -0.880279D-02  0.988419D-02 -0.322515D-01
               16            17            18            19            20 
     16  0.490884D-01
     17  0.149297D-01  0.626188D-01
     18  0.454368D-02  0.113300D-03  0.150365D-01
     19 -0.833735D-02 -0.196281D-01  0.134813D-03  0.386054D-01
     20  0.778947D-04 -0.402209D-01  0.431821D-02 -0.142671D-02  0.711461D-01
     21 -0.191574D-02  0.298802D-03  0.162325D-02  0.445012D-02 -0.569150D-02
               21 
     21  0.172172D-01
 Leave Link  716 at Mon Nov 13 17:49:53 2023, MaxMem=  1879048192 cpu:               0.5 elap:               0.0
 (Enter /home/sekinelabo/g16/l103.exe)

 GradGradGradGradGradGradGradGradGradGradGradGradGradGradGradGradGradGrad
 Berny optimization.
 Search for a local minimum.
 Step number   1 out of a maximum of    2
 All quantities printed in internal units (Hartrees-Bohrs-Radians)
 Second derivative matrix not updated -- first step.
 ITU=  0
     Eigenvalues ---    0.01551   0.01676   0.03747   0.05031   0.06135
     Eigenvalues ---    0.06441   0.09667   0.11151   0.12720   0.15364
     Eigenvalues ---    0.16126   0.19753   0.20218   0.22750   0.23164
 Quadratic step=3.933D-01 exceeds max=3.000D-01 adjusted using Lamda=-1.698D-02.
 Angle between NR and scaled steps=   7.37 degrees.
 Angle between quadratic step and forces=  30.06 degrees.
 Linear search not attempted -- first point.
 B after Tr=     0.000000    0.000000   -0.000000
         Rot=    1.000000   -0.000000    0.000000   -0.000000 Ang=   0.00 deg.
 Variable       Old X    -DE/DX   Delta X   Delta X   Delta X     New X
                                 (Linear)    (Quad)   (Total)
    X1        4.48129   0.00025   0.00000  -0.03590  -0.03590   4.44539
    Y1        3.35034  -0.00753   0.00000  -0.01276  -0.01276   3.33759
    Z1        5.24722   0.01645   0.00000   0.08312   0.08312   5.33035
    X2        6.10489   0.00498   0.00000   0.02476   0.02476   6.12965
    Y2        8.53943   0.01569   0.00000   0.13420   0.13420   8.67363
    Z2        3.65301   0.00417   0.00000   0.02933   0.02933   3.68234
    X3        0.00000  -0.00755   0.00000  -0.10043  -0.10043  -0.10043
    Y3        1.32214  -0.00786   0.00000  -0.11165  -0.11165   1.21049
    Z3        2.42956  -0.00150   0.00000  -0.02615  -0.02615   2.40341
    X4        3.37908  -0.00749   0.00000  -0.08202  -0.08202   3.29707
    Y4        5.17287   0.00426   0.00000   0.05011   0.05011   5.22298
    Z4        0.00000  -0.01534   0.00000  -0.06476  -0.06476  -0.06476
    X5        8.71216   0.00289   0.00000   0.02743   0.02743   8.73959
    Y5        3.98100  -0.00039   0.00000   0.01518   0.01518   3.99618
    Z5        1.52394  -0.00596   0.00000  -0.02160  -0.02160   1.50234
    X6       14.12386   0.00419   0.00000   0.09264   0.09264  14.21650
    Y6        5.45082   0.00563   0.00000   0.01984   0.01984   5.47067
    Z6        2.39862   0.00000   0.00000  -0.01869  -0.01869   2.37994
    X7       12.59613   0.00272   0.00000   0.07353   0.07353  12.66965
    Y7        0.00000  -0.00980   0.00000  -0.09493  -0.09493  -0.09493
    Z7        2.64692   0.00218   0.00000   0.01874   0.01874   2.66566
         Item               Value     Threshold  Converged?
 Maximum Force            0.016454     0.000450     NO 
 RMS     Force            0.007709     0.000300     NO 
 Maximum Displacement     0.134200     0.001800     NO 
 RMS     Displacement     0.065486     0.001200     NO 
 Predicted change in Energy=-5.352390D-03
 GradGradGradGradGradGradGradGradGradGradGradGradGradGradGradGradGradGrad

 Leave Link  103 at Mon Nov 13 17:49:53 2023, MaxMem=  1879048192 cpu:               0.3 elap:               0.0
 (Enter /home/sekinelabo/g16/l9999.exe)
 1\1\GINC-SEKINELABO-XA7R-R37\Force\UB3LYP\6-311+G(d)\Na7(2)\SEKINELABO
 \13-Nov-2023\0\\#P B3LYP/6-311+g(d) force\\Gaussian input prepared by 
 ASE\\0,2\Na,2.3713968574,1.7729247078,2.7767105022\Na,3.2305693769,4.5
 188723394,1.9330903062\Na,0.,0.6996472783,1.2856658812\Na,1.7881343572
 ,2.737363317,0.\Na,4.6102769727,2.1066527216,0.8064326614\Na,7.4740254
 118,2.8844508792,1.2692975469\Na,6.6655825219,0.,1.4006874653\\Version
 =ES64L-G16RevB.01\State=2-A\HF=-1136.0911504\S2=0.759179\S2-1=0.\S2A=0
 .750053\RMSD=8.912e-09\RMSF=7.709e-03\Dipole=0.9338959,0.1162419,0.218
 6822\Quadrupole=8.1096565,0.0019883,-8.1116448,0.7150195,0.0977524,1.7
 821171\PG=C01 [X(Na7)]\\@


 CHILDREN YOU ARE VERY LITTLE,
 AND YOUR BONES ARE VERY BRITTLE;
 IF YOU WOULD GROW GREAT AND STATELY
 YOU MUST TRY TO WALK SEDATELY.
 YOU MUST STILL BE BRIGHT AND QUIET,
 AND CONTENT WITH SIMPLE DIET;
 AND REMAIN, THROUGH ALL BEWILD'RING
 INNOCENT AND HONEST CHILDREN.
     -- A CHILD'S GARDEN OF VERSE,
        ROBERT LOUIS STEVENSON
 Job cpu time:       0 days  0 hours  5 minutes  9.9 seconds.
 Elapsed time:       0 days  0 hours  0 minutes 25.4 seconds.
 File lengths (MBytes):  RWF=     32 Int=      0 D2E=      0 Chk=      5 Scr=      1
 Normal termination of Gaussian 16 at Mon Nov 13 17:49:53 2023.
