 Entering Gaussian System, Link 0=g16
 Initial command:
 /home/sekinelabo/g16/l1.exe "/home/sekinelabo/g16temp/Gau-4101503.inp" -scrdir="/home/sekinelabo/g16temp/"
 Entering Link 1 = /home/sekinelabo/g16/l1.exe PID=   4101505.
  
 Copyright (c) 1988-2017, Gaussian, Inc.  All Rights Reserved.
  
 This is part of the Gaussian(R) 16 program.  It is based on
 the Gaussian(R) 09 system (copyright 2009, Gaussian, Inc.),
 the Gaussian(R) 03 system (copyright 2003, Gaussian, Inc.),
 the Gaussian(R) 98 system (copyright 1998, Gaussian, Inc.),
 the Gaussian(R) 94 system (copyright 1995, Gaussian, Inc.),
 the Gaussian 92(TM) system (copyright 1992, Gaussian, Inc.),
 the Gaussian 90(TM) system (copyright 1990, Gaussian, Inc.),
 the Gaussian 88(TM) system (copyright 1988, Gaussian, Inc.),
 the Gaussian 86(TM) system (copyright 1986, Carnegie Mellon
 University), and the Gaussian 82(TM) system (copyright 1983,
 Carnegie Mellon University). Gaussian is a federally registered
 trademark of Gaussian, Inc.
  
 This software contains proprietary and confidential information,
 including trade secrets, belonging to Gaussian, Inc.
  
 This software is provided under written license and may be
 used, copied, transmitted, or stored only in accord with that
 written license.
  
 The following legend is applicable only to US Government
 contracts under FAR:
  
                    RESTRICTED RIGHTS LEGEND
  
 Use, reproduction and disclosure by the US Government is
 subject to restrictions as set forth in subparagraphs (a)
 and (c) of the Commercial Computer Software - Restricted
 Rights clause in FAR 52.227-19.
  
 Gaussian, Inc.
 340 Quinnipiac St., Bldg. 40, Wallingford CT 06492
  
  
 ---------------------------------------------------------------
 Warning -- This program may not be used in any manner that
 competes with the business of Gaussian, Inc. or will provide
 assistance to any competitor of Gaussian, Inc.  The licensee
 of this program is prohibited from giving any competitor of
 Gaussian, Inc. access to this program.  By using this program,
 the user acknowledges that Gaussian, Inc. is engaged in the
 business of creating and licensing software in the field of
 computational chemistry and represents and warrants to the
 licensee that it is not a competitor of Gaussian, Inc. and that
 it will not use this program in any manner prohibited above.
 ---------------------------------------------------------------
  

 Cite this work as:
 Gaussian 16, Revision B.01,
 M. J. Frisch, G. W. Trucks, H. B. Schlegel, G. E. Scuseria, 
 M. A. Robb, J. R. Cheeseman, G. Scalmani, V. Barone, 
 G. A. Petersson, H. Nakatsuji, X. Li, M. Caricato, A. V. Marenich, 
 J. Bloino, B. G. Janesko, R. Gomperts, B. Mennucci, H. P. Hratchian, 
 J. V. Ortiz, A. F. Izmaylov, J. L. Sonnenberg, D. Williams-Young, 
 F. Ding, F. Lipparini, F. Egidi, J. Goings, B. Peng, A. Petrone, 
 T. Henderson, D. Ranasinghe, V. G. Zakrzewski, J. Gao, N. Rega, 
 G. Zheng, W. Liang, M. Hada, M. Ehara, K. Toyota, R. Fukuda, 
 J. Hasegawa, M. Ishida, T. Nakajima, Y. Honda, O. Kitao, H. Nakai, 
 T. Vreven, K. Throssell, J. A. Montgomery, Jr., J. E. Peralta, 
 F. Ogliaro, M. J. Bearpark, J. J. Heyd, E. N. Brothers, K. N. Kudin, 
 V. N. Staroverov, T. A. Keith, R. Kobayashi, J. Normand, 
 K. Raghavachari, A. P. Rendell, J. C. Burant, S. S. Iyengar, 
 J. Tomasi, M. Cossi, J. M. Millam, M. Klene, C. Adamo, R. Cammi, 
 J. W. Ochterski, R. L. Martin, K. Morokuma, O. Farkas, 
 J. B. Foresman, and D. J. Fox, Gaussian, Inc., Wallingford CT, 2016.
 
 ******************************************
 Gaussian 16:  ES64L-G16RevB.01 20-Dec-2017
                13-Nov-2023 
 ******************************************
 %mem=14GB
 %chk=checkpoint.chk
 %nprocshared=16
 Will use up to   16 processors via shared memory.
 -------------------------
 #P B3LYP/6-311+g(d) force
 -------------------------
 1/10=7,30=1,38=1/1,3;
 2/12=2,17=6,18=5,40=1/2;
 3/5=4,6=6,7=11,11=2,25=1,30=1,71=1,74=-5/1,2,3;
 4//1;
 5/5=2,38=5/2;
 6/7=2,8=2,9=2,10=2,28=1/1;
 7/29=1/1,2,3,16;
 1/10=7,30=1/3;
 99//99;
 Leave Link    1 at Mon Nov 13 18:09:28 2023, MaxMem=  1879048192 cpu:               0.3 elap:               0.0
 (Enter /home/sekinelabo/g16/l101.exe)
 ------------------------------
 Gaussian input prepared by ASE
 ------------------------------
 Symbolic Z-matrix:
 Charge =  0 Multiplicity = 2
 Na                    2.66967   2.0337    2.78451 
 Na                    1.78183   2.79942   0. 
 Na                    4.35775   3.63497   1.05291 
 Na                    5.19215   0.97351   1.84062 
 Na                    2.5962    0.        0.99177 
 Na                    0.        0.7119    1.29848 
 Na                    0.27308   3.20137   2.31598 
 
 ITRead=  0  0  0  0  0  0  0
 MicOpt= -1 -1 -1 -1 -1 -1 -1
 NAtoms=      7 NQM=        7 NQMF=       0 NMMI=      0 NMMIF=      0
                NMic=       0 NMicF=      0.
                    Isotopes and Nuclear Properties:
 (Nuclear quadrupole moments (NQMom) in fm**2, nuclear magnetic moments (NMagM)
  in nuclear magnetons)

  Atom         1           2           3           4           5           6           7
 IAtWgt=          23          23          23          23          23          23          23
 AtmWgt=  22.9897697  22.9897697  22.9897697  22.9897697  22.9897697  22.9897697  22.9897697
 NucSpn=           3           3           3           3           3           3           3
 AtZEff=  -0.0000000  -0.0000000  -0.0000000  -0.0000000  -0.0000000  -0.0000000  -0.0000000
 NQMom=   10.4000000  10.4000000  10.4000000  10.4000000  10.4000000  10.4000000  10.4000000
 NMagM=    2.2175200   2.2175200   2.2175200   2.2175200   2.2175200   2.2175200   2.2175200
 AtZNuc=  11.0000000  11.0000000  11.0000000  11.0000000  11.0000000  11.0000000  11.0000000
 Leave Link  101 at Mon Nov 13 18:09:28 2023, MaxMem=  1879048192 cpu:               2.7 elap:               0.2
 (Enter /home/sekinelabo/g16/l103.exe)

 GradGradGradGradGradGradGradGradGradGradGradGradGradGradGradGradGradGrad
 Berny optimization.
 Initialization pass.
 Trust Radius=3.00D-01 FncErr=1.00D-07 GrdErr=1.00D-07 EigMax=2.50D+02 EigMin=1.00D-04
 Number of steps in this run=      2 maximum allowed number of steps=      2.
 GradGradGradGradGradGradGradGradGradGradGradGradGradGradGradGradGradGrad

 Leave Link  103 at Mon Nov 13 18:09:28 2023, MaxMem=  1879048192 cpu:               0.2 elap:               0.0
 (Enter /home/sekinelabo/g16/l202.exe)
                          Input orientation:                          
 ---------------------------------------------------------------------
 Center     Atomic      Atomic             Coordinates (Angstroms)
 Number     Number       Type             X           Y           Z
 ---------------------------------------------------------------------
      1         11           0        2.669673    2.033705    2.784505
      2         11           0        1.781833    2.799424    0.000000
      3         11           0        4.357747    3.634971    1.052911
      4         11           0        5.192153    0.973513    1.840618
      5         11           0        2.596200    0.000000    0.991770
      6         11           0        0.000000    0.711897    1.298478
      7         11           0        0.273076    3.201371    2.315984
 ---------------------------------------------------------------------
                    Distance matrix (angstroms):
                    1          2          3          4          5
     1  Na   0.000000
     2  Na   3.021267   0.000000
     3  Na   2.900356   2.905529   0.000000
     4  Na   2.894449   4.283936   2.898288   0.000000
     5  Na   2.712057   3.079541   4.039778   2.899525   0.000000
     6  Na   3.329055   3.036238   5.253059   5.226931   2.709450
     7  Na   2.706775   2.793150   4.297429   5.420945   4.171237
                    6          7
     6  Na   0.000000
     7  Na   2.703215   0.000000
 Stoichiometry    Na7(2)
 Framework group  C1[X(Na7)]
 Deg. of freedom    15
 Full point group                 C1      NOp   1
 Largest Abelian subgroup         C1      NOp   1
 Largest concise Abelian subgroup C1      NOp   1
                         Standard orientation:                         
 ---------------------------------------------------------------------
 Center     Atomic      Atomic             Coordinates (Angstroms)
 Number     Number       Type             X           Y           Z
 ---------------------------------------------------------------------
      1         11           0        0.259575   -0.125865   -1.315324
      2         11           0       -0.628265   -0.891583    1.469181
      3         11           0        1.947650   -1.727131    0.416269
      4         11           0        2.782056    0.934327   -0.371437
      5         11           0        0.186102    1.907840    0.477411
      6         11           0       -2.410097    1.195943    0.170703
      7         11           0       -2.137021   -1.293531   -0.846803
 ---------------------------------------------------------------------
 Rotational constants (GHZ):           1.3255397           0.7970758           0.6500819
 Leave Link  202 at Mon Nov 13 18:09:28 2023, MaxMem=  1879048192 cpu:               0.1 elap:               0.0
 (Enter /home/sekinelabo/g16/l301.exe)
 Standard basis: 6-311+G(d) (5D, 7F)
 Ernie: Thresh=  0.10000D-02 Tol=  0.10000D-05 Strict=F.
 There are   217 symmetry adapted cartesian basis functions of A   symmetry.
 There are   210 symmetry adapted basis functions of A   symmetry.
   210 basis functions,   350 primitive gaussians,   217 cartesian basis functions
    39 alpha electrons       38 beta electrons
       nuclear repulsion energy       407.5256660898 Hartrees.
 IExCor=  402 DFT=T Ex+Corr=B3LYP ExCW=0 ScaHFX=  0.200000
 ScaDFX=  0.800000  0.720000  1.000000  0.810000 ScalE2=  1.000000  1.000000
 IRadAn=      5 IRanWt=     -1 IRanGd=            0 ICorTp=0 IEmpDi=  4
 NAtoms=    7 NActive=    7 NUniq=    7 SFac= 1.00D+00 NAtFMM=   60 NAOKFM=F Big=F
 Integral buffers will be    131072 words long.
 Raffenetti 2 integral format.
 Two-electron integral symmetry is turned on.
 Leave Link  301 at Mon Nov 13 18:09:28 2023, MaxMem=  1879048192 cpu:               0.5 elap:               0.0
 (Enter /home/sekinelabo/g16/l302.exe)
 NPDir=0 NMtPBC=     1 NCelOv=     1 NCel=       1 NClECP=     1 NCelD=      1
         NCelK=      1 NCelE2=     1 NClLst=     1 CellRange=     0.0.
 One-electron integrals computed using PRISM.
 One-electron integral symmetry used in STVInt
 NBasis=   210 RedAO= T EigKep=  2.41D-06  NBF=   210
 NBsUse=   209 1.00D-06 EigRej=  5.24D-07 NBFU=   209
 Precomputing XC quadrature grid using
 IXCGrd= 4 IRadAn=           5 IRanWt=          -1 IRanGd=           0 AccXCQ= 0.00D+00.
 Generated NRdTot=       0 NPtTot=           0 NUsed=           0 NTot=          32
 NSgBfM=   211   211   211   211   211 MxSgAt=     7 MxSgA2=     7.
 Leave Link  302 at Mon Nov 13 18:09:28 2023, MaxMem=  1879048192 cpu:               2.2 elap:               0.1
 (Enter /home/sekinelabo/g16/l303.exe)
 DipDrv:  MaxL=1.
 Leave Link  303 at Mon Nov 13 18:09:28 2023, MaxMem=  1879048192 cpu:               0.5 elap:               0.0
 (Enter /home/sekinelabo/g16/l401.exe)
 ExpMin= 7.60D-03 ExpMax= 3.62D+04 ExpMxC= 1.21D+03 IAcc=3 IRadAn=         5 AccDes= 0.00D+00
 Harris functional with IExCor=  402 and IRadAn=       5 diagonalized for initial guess.
 HarFok:  IExCor=  402 AccDes= 0.00D+00 IRadAn=         5 IDoV= 1 UseB2=F ITyADJ=14
 ICtDFT=  3500011 ScaDFX=  1.000000  1.000000  1.000000  1.000000
 FoFCou: FMM=F IPFlag=           0 FMFlag=      100000 FMFlg1=           0
         NFxFlg=           0 DoJE=T BraDBF=F KetDBF=T FulRan=T
         wScrn=  0.000000 ICntrl=       500 IOpCl=  0 I1Cent=   200000004 NGrid=           0
         NMat0=    1 NMatS0=      1 NMatT0=    0 NMatD0=    1 NMtDS0=    0 NMtDT0=    0
 Petite list used in FoFCou.
 Harris En= -1135.84661412559    
 JPrj=0 DoOrth=F DoCkMO=F.
 Initial guess <Sx>= 0.0000 <Sy>= 0.0000 <Sz>= 0.5000 <S**2>= 0.7500 S= 0.5000
 Leave Link  401 at Mon Nov 13 18:09:28 2023, MaxMem=  1879048192 cpu:               5.6 elap:               0.4
 (Enter /home/sekinelabo/g16/l502.exe)
 Keep R1 and R2 ints in memory in canonical form, NReq=507620388.
 FoFCou: FMM=F IPFlag=           0 FMFlag=           0 FMFlg1=           0
         NFxFlg=           0 DoJE=F BraDBF=F KetDBF=F FulRan=T
         wScrn=  0.000000 ICntrl=       600 IOpCl=  0 I1Cent=           0 NGrid=           0
         NMat0=    1 NMatS0=  22155 NMatT0=    0 NMatD0=    1 NMtDS0=    0 NMtDT0=    0
 Symmetry not used in FoFCou.
 Two-electron integral symmetry not used.
 UHF open shell SCF:
 Using DIIS extrapolation, IDIIS=  1040.
 NGot=  1879048192 LenX=  1388082348 LenY=  1388034818
 Requested convergence on RMS density matrix=1.00D-08 within 128 cycles.
 Requested convergence on MAX density matrix=1.00D-06.
 Requested convergence on             energy=1.00D-06.
 No special actions if energy rises.

 Cycle   1  Pass 1  IDiag  1:
 E= -1136.02396202599    
 DIIS: error= 1.52D-02 at cycle   1 NSaved=   1.
 NSaved= 1 IEnMin= 1 EnMin= -1136.02396202599     IErMin= 1 ErrMin= 1.52D-02
 ErrMax= 1.52D-02  0.00D+00 EMaxC= 1.00D-01 BMatC= 2.15D-01 BMatP= 2.15D-01
 IDIUse=3 WtCom= 8.48D-01 WtEn= 1.52D-01
 Coeff-Com:  0.100D+01
 Coeff-En:   0.100D+01
 Coeff:      0.100D+01
 Gap=     0.042 Goal=   None    Shift=    0.000
 Gap=     0.044 Goal=   None    Shift=    0.000
 GapD=    0.042 DampG=0.250 DampE=0.500 DampFc=0.2500 IDamp=-1.
 Damping current iteration by 2.50D-01
 RMSDP=8.24D-02 MaxDP=5.85D+00              OVMax= 2.81D-01

 Cycle   2  Pass 1  IDiag  1:
 E= -1136.04115726143     Delta-E=       -0.017195235441 Rises=F Damp=T
 DIIS: error= 7.08D-03 at cycle   2 NSaved=   2.
 NSaved= 2 IEnMin= 2 EnMin= -1136.04115726143     IErMin= 2 ErrMin= 7.08D-03
 ErrMax= 7.08D-03  0.00D+00 EMaxC= 1.00D-01 BMatC= 7.99D-02 BMatP= 2.15D-01
 IDIUse=3 WtCom= 9.29D-01 WtEn= 7.08D-02
 Coeff-Com: -0.123D+01 0.223D+01
 Coeff-En:   0.000D+00 0.100D+01
 Coeff:     -0.114D+01 0.214D+01
 Gap=     0.056 Goal=   None    Shift=    0.000
 Gap=     0.047 Goal=   None    Shift=    0.000
 RMSDP=2.99D-02 MaxDP=2.31D+00 DE=-1.72D-02 OVMax= 1.96D-01

 Cycle   3  Pass 1  IDiag  1:
 E= -1136.06859937972     Delta-E=       -0.027442118289 Rises=F Damp=F
 DIIS: error= 4.60D-03 at cycle   3 NSaved=   3.
 NSaved= 3 IEnMin= 3 EnMin= -1136.06859937972     IErMin= 3 ErrMin= 4.60D-03
 ErrMax= 4.60D-03  0.00D+00 EMaxC= 1.00D-01 BMatC= 6.00D-03 BMatP= 7.99D-02
 IDIUse=3 WtCom= 9.54D-01 WtEn= 4.60D-02
 Coeff-Com: -0.348D+00 0.620D+00 0.727D+00
 Coeff-En:   0.000D+00 0.000D+00 0.100D+01
 Coeff:     -0.332D+00 0.592D+00 0.740D+00
 Gap=     0.052 Goal=   None    Shift=    0.000
 Gap=     0.045 Goal=   None    Shift=    0.000
 RMSDP=1.87D-02 MaxDP=1.27D+00 DE=-2.74D-02 OVMax= 6.46D-02

 Cycle   4  Pass 1  IDiag  1:
 E= -1136.07020207529     Delta-E=       -0.001602695565 Rises=F Damp=F
 DIIS: error= 3.27D-03 at cycle   4 NSaved=   4.
 NSaved= 4 IEnMin= 4 EnMin= -1136.07020207529     IErMin= 4 ErrMin= 3.27D-03
 ErrMax= 3.27D-03  0.00D+00 EMaxC= 1.00D-01 BMatC= 3.21D-03 BMatP= 6.00D-03
 IDIUse=3 WtCom= 9.67D-01 WtEn= 3.27D-02
 Coeff-Com: -0.142D-01 0.203D-01 0.421D+00 0.573D+00
 Coeff-En:   0.000D+00 0.000D+00 0.365D+00 0.635D+00
 Coeff:     -0.137D-01 0.196D-01 0.419D+00 0.575D+00
 Gap=     0.054 Goal=   None    Shift=    0.000
 Gap=     0.045 Goal=   None    Shift=    0.000
 RMSDP=5.79D-03 MaxDP=4.26D-01 DE=-1.60D-03 OVMax= 3.52D-02

 Cycle   5  Pass 1  IDiag  1:
 E= -1136.07192231384     Delta-E=       -0.001720238553 Rises=F Damp=F
 DIIS: error= 5.91D-04 at cycle   5 NSaved=   5.
 NSaved= 5 IEnMin= 5 EnMin= -1136.07192231384     IErMin= 5 ErrMin= 5.91D-04
 ErrMax= 5.91D-04  0.00D+00 EMaxC= 1.00D-01 BMatC= 1.07D-04 BMatP= 3.21D-03
 IDIUse=3 WtCom= 9.94D-01 WtEn= 5.91D-03
 Coeff-Com: -0.789D-02 0.103D-01 0.265D+00 0.369D+00 0.364D+00
 Coeff-En:   0.000D+00 0.000D+00 0.000D+00 0.000D+00 0.100D+01
 Coeff:     -0.784D-02 0.103D-01 0.264D+00 0.366D+00 0.368D+00
 Gap=     0.054 Goal=   None    Shift=    0.000
 Gap=     0.045 Goal=   None    Shift=    0.000
 RMSDP=6.93D-04 MaxDP=4.79D-02 DE=-1.72D-03 OVMax= 1.14D-02

 Cycle   6  Pass 1  IDiag  1:
 E= -1136.07203412515     Delta-E=       -0.000111811309 Rises=F Damp=F
 DIIS: error= 1.32D-04 at cycle   6 NSaved=   6.
 NSaved= 6 IEnMin= 6 EnMin= -1136.07203412515     IErMin= 6 ErrMin= 1.32D-04
 ErrMax= 1.32D-04  0.00D+00 EMaxC= 1.00D-01 BMatC= 5.17D-06 BMatP= 1.07D-04
 IDIUse=3 WtCom= 9.99D-01 WtEn= 1.32D-03
 Coeff-Com: -0.169D-02 0.193D-02 0.167D-02 0.545D-03 0.155D+00 0.842D+00
 Coeff-En:   0.000D+00 0.000D+00 0.000D+00 0.000D+00 0.534D-03 0.999D+00
 Coeff:     -0.169D-02 0.193D-02 0.167D-02 0.545D-03 0.155D+00 0.843D+00
 Gap=     0.055 Goal=   None    Shift=    0.000
 Gap=     0.046 Goal=   None    Shift=    0.000
 RMSDP=4.59D-04 MaxDP=3.17D-02 DE=-1.12D-04 OVMax= 3.24D-03

 Cycle   7  Pass 1  IDiag  1:
 E= -1136.07203986315     Delta-E=       -0.000005737995 Rises=F Damp=F
 DIIS: error= 8.29D-05 at cycle   7 NSaved=   7.
 NSaved= 7 IEnMin= 7 EnMin= -1136.07203986315     IErMin= 7 ErrMin= 8.29D-05
 ErrMax= 8.29D-05  0.00D+00 EMaxC= 1.00D-01 BMatC= 2.09D-06 BMatP= 5.17D-06
 IDIUse=1 WtCom= 1.00D+00 WtEn= 0.00D+00
 Coeff-Com: -0.467D-04-0.141D-03-0.324D-01-0.462D-01 0.514D-01 0.530D+00
 Coeff-Com:  0.497D+00
 Coeff:     -0.467D-04-0.141D-03-0.324D-01-0.462D-01 0.514D-01 0.530D+00
 Coeff:      0.497D+00
 Gap=     0.055 Goal=   None    Shift=    0.000
 Gap=     0.046 Goal=   None    Shift=    0.000
 RMSDP=1.19D-04 MaxDP=9.07D-03 DE=-5.74D-06 OVMax= 1.36D-03

 Cycle   8  Pass 1  IDiag  1:
 E= -1136.07204214017     Delta-E=       -0.000002277026 Rises=F Damp=F
 DIIS: error= 1.74D-05 at cycle   8 NSaved=   8.
 NSaved= 8 IEnMin= 8 EnMin= -1136.07204214017     IErMin= 8 ErrMin= 1.74D-05
 ErrMax= 1.74D-05  0.00D+00 EMaxC= 1.00D-01 BMatC= 1.06D-07 BMatP= 2.09D-06
 IDIUse=1 WtCom= 1.00D+00 WtEn= 0.00D+00
 Coeff-Com:  0.752D-03-0.980D-03-0.466D-02-0.513D-02-0.352D-01-0.168D+00
 Coeff-Com:  0.364D-01 0.118D+01
 Coeff:      0.752D-03-0.980D-03-0.466D-02-0.513D-02-0.352D-01-0.168D+00
 Coeff:      0.364D-01 0.118D+01
 Gap=     0.055 Goal=   None    Shift=    0.000
 Gap=     0.046 Goal=   None    Shift=    0.000
 RMSDP=1.01D-04 MaxDP=7.36D-03 DE=-2.28D-06 OVMax= 1.14D-03

 Cycle   9  Pass 1  IDiag  1:
 E= -1136.07204258337     Delta-E=       -0.000000443197 Rises=F Damp=F
 DIIS: error= 6.99D-06 at cycle   9 NSaved=   9.
 NSaved= 9 IEnMin= 9 EnMin= -1136.07204258337     IErMin= 9 ErrMin= 6.99D-06
 ErrMax= 6.99D-06  0.00D+00 EMaxC= 1.00D-01 BMatC= 1.50D-08 BMatP= 1.06D-07
 IDIUse=1 WtCom= 1.00D+00 WtEn= 0.00D+00
 Coeff-Com:  0.312D-03-0.391D-03 0.199D-02 0.307D-02-0.124D-01-0.805D-01
 Coeff-Com: -0.517D-01 0.221D+00 0.919D+00
 Coeff:      0.312D-03-0.391D-03 0.199D-02 0.307D-02-0.124D-01-0.805D-01
 Coeff:     -0.517D-01 0.221D+00 0.919D+00
 Gap=     0.055 Goal=   None    Shift=    0.000
 Gap=     0.046 Goal=   None    Shift=    0.000
 RMSDP=3.10D-05 MaxDP=2.19D-03 DE=-4.43D-07 OVMax= 4.18D-04

 Cycle  10  Pass 1  IDiag  1:
 E= -1136.07204263802     Delta-E=       -0.000000054649 Rises=F Damp=F
 DIIS: error= 6.01D-06 at cycle  10 NSaved=  10.
 NSaved=10 IEnMin=10 EnMin= -1136.07204263802     IErMin=10 ErrMin= 6.01D-06
 ErrMax= 6.01D-06  0.00D+00 EMaxC= 1.00D-01 BMatC= 6.67D-09 BMatP= 1.50D-08
 IDIUse=1 WtCom= 1.00D+00 WtEn= 0.00D+00
 Coeff-Com:  0.163D-04-0.828D-05 0.203D-02 0.261D-02-0.717D-04-0.159D-01
 Coeff-Com: -0.328D-01-0.875D-01 0.447D+00 0.685D+00
 Coeff:      0.163D-04-0.828D-05 0.203D-02 0.261D-02-0.717D-04-0.159D-01
 Coeff:     -0.328D-01-0.875D-01 0.447D+00 0.685D+00
 Gap=     0.055 Goal=   None    Shift=    0.000
 Gap=     0.046 Goal=   None    Shift=    0.000
 RMSDP=1.61D-05 MaxDP=9.70D-04 DE=-5.46D-08 OVMax= 2.39D-04

 Cycle  11  Pass 1  IDiag  1:
 E= -1136.07204265186     Delta-E=       -0.000000013843 Rises=F Damp=F
 DIIS: error= 3.66D-06 at cycle  11 NSaved=  11.
 NSaved=11 IEnMin=11 EnMin= -1136.07204265186     IErMin=11 ErrMin= 3.66D-06
 ErrMax= 3.66D-06  0.00D+00 EMaxC= 1.00D-01 BMatC= 2.12D-09 BMatP= 6.67D-09
 IDIUse=1 WtCom= 1.00D+00 WtEn= 0.00D+00
 Coeff-Com: -0.100D-03 0.135D-03 0.604D-03 0.586D-03 0.368D-02 0.122D-01
 Coeff-Com: -0.375D-02-0.111D+00-0.227D-01 0.385D+00 0.736D+00
 Coeff:     -0.100D-03 0.135D-03 0.604D-03 0.586D-03 0.368D-02 0.122D-01
 Coeff:     -0.375D-02-0.111D+00-0.227D-01 0.385D+00 0.736D+00
 Gap=     0.055 Goal=   None    Shift=    0.000
 Gap=     0.046 Goal=   None    Shift=    0.000
 RMSDP=8.96D-06 MaxDP=9.74D-04 DE=-1.38D-08 OVMax= 1.37D-04

 Cycle  12  Pass 1  IDiag  1:
 E= -1136.07204265707     Delta-E=       -0.000000005208 Rises=F Damp=F
 DIIS: error= 1.57D-06 at cycle  12 NSaved=  12.
 NSaved=12 IEnMin=12 EnMin= -1136.07204265707     IErMin=12 ErrMin= 1.57D-06
 ErrMax= 1.57D-06  0.00D+00 EMaxC= 1.00D-01 BMatC= 3.81D-10 BMatP= 2.12D-09
 IDIUse=1 WtCom= 1.00D+00 WtEn= 0.00D+00
 Coeff-Com: -0.593D-04 0.755D-04-0.109D-03-0.214D-03 0.221D-02 0.111D-01
 Coeff-Com:  0.482D-02-0.421D-01-0.105D+00 0.696D-02 0.342D+00 0.781D+00
 Coeff:     -0.593D-04 0.755D-04-0.109D-03-0.214D-03 0.221D-02 0.111D-01
 Coeff:      0.482D-02-0.421D-01-0.105D+00 0.696D-02 0.342D+00 0.781D+00
 Gap=     0.055 Goal=   None    Shift=    0.000
 Gap=     0.046 Goal=   None    Shift=    0.000
 RMSDP=3.85D-06 MaxDP=3.28D-04 DE=-5.21D-09 OVMax= 7.83D-05

 Cycle  13  Pass 1  IDiag  1:
 E= -1136.07204265823     Delta-E=       -0.000000001158 Rises=F Damp=F
 DIIS: error= 3.51D-07 at cycle  13 NSaved=  13.
 NSaved=13 IEnMin=13 EnMin= -1136.07204265823     IErMin=13 ErrMin= 3.51D-07
 ErrMax= 3.51D-07  0.00D+00 EMaxC= 1.00D-01 BMatC= 3.83D-11 BMatP= 3.81D-10
 IDIUse=1 WtCom= 1.00D+00 WtEn= 0.00D+00
 Coeff-Com:  0.196D-04-0.264D-04-0.493D-04-0.307D-04-0.689D-03-0.277D-02
 Coeff-Com:  0.853D-03 0.204D-01-0.119D-02-0.650D-01-0.112D+00 0.827D-02
 Coeff-Com:  0.115D+01
 Coeff:      0.196D-04-0.264D-04-0.493D-04-0.307D-04-0.689D-03-0.277D-02
 Coeff:      0.853D-03 0.204D-01-0.119D-02-0.650D-01-0.112D+00 0.827D-02
 Coeff:      0.115D+01
 Gap=     0.055 Goal=   None    Shift=    0.000
 Gap=     0.046 Goal=   None    Shift=    0.000
 RMSDP=2.23D-06 MaxDP=2.14D-04 DE=-1.16D-09 OVMax= 4.55D-05

 Cycle  14  Pass 1  IDiag  1:
 E= -1136.07204265852     Delta-E=       -0.000000000290 Rises=F Damp=F
 DIIS: error= 1.86D-07 at cycle  14 NSaved=  14.
 NSaved=14 IEnMin=14 EnMin= -1136.07204265852     IErMin=14 ErrMin= 1.86D-07
 ErrMax= 1.86D-07  0.00D+00 EMaxC= 1.00D-01 BMatC= 8.78D-12 BMatP= 3.83D-11
 IDIUse=1 WtCom= 1.00D+00 WtEn= 0.00D+00
 Coeff-Com:  0.755D-05-0.931D-05 0.897D-05 0.229D-04-0.247D-03-0.143D-02
 Coeff-Com: -0.152D-02 0.346D-02 0.243D-01 0.216D-01-0.449D-01-0.201D+00
 Coeff-Com: -0.368D+00 0.157D+01
 Coeff:      0.755D-05-0.931D-05 0.897D-05 0.229D-04-0.247D-03-0.143D-02
 Coeff:     -0.152D-02 0.346D-02 0.243D-01 0.216D-01-0.449D-01-0.201D+00
 Coeff:     -0.368D+00 0.157D+01
 Gap=     0.055 Goal=   None    Shift=    0.000
 Gap=     0.046 Goal=   None    Shift=    0.000
 RMSDP=1.72D-06 MaxDP=1.27D-04 DE=-2.90D-10 OVMax= 3.52D-05

 Cycle  15  Pass 1  IDiag  1:
 E= -1136.07204265859     Delta-E=       -0.000000000075 Rises=F Damp=F
 DIIS: error= 6.00D-08 at cycle  15 NSaved=  15.
 NSaved=15 IEnMin=15 EnMin= -1136.07204265859     IErMin=15 ErrMin= 6.00D-08
 ErrMax= 6.00D-08  0.00D+00 EMaxC= 1.00D-01 BMatC= 9.38D-13 BMatP= 8.78D-12
 IDIUse=1 WtCom= 1.00D+00 WtEn= 0.00D+00
 Coeff-Com: -0.285D-05 0.391D-05 0.914D-05 0.660D-05 0.732D-04 0.247D-03
 Coeff-Com: -0.116D-03-0.264D-02 0.137D-02 0.941D-02 0.156D-01-0.602D-02
 Coeff-Com: -0.174D+00 0.455D-01 0.111D+01
 Coeff:     -0.285D-05 0.391D-05 0.914D-05 0.660D-05 0.732D-04 0.247D-03
 Coeff:     -0.116D-03-0.264D-02 0.137D-02 0.941D-02 0.156D-01-0.602D-02
 Coeff:     -0.174D+00 0.455D-01 0.111D+01
 Gap=     0.055 Goal=   None    Shift=    0.000
 Gap=     0.046 Goal=   None    Shift=    0.000
 RMSDP=4.74D-07 MaxDP=3.66D-05 DE=-7.53D-11 OVMax= 9.20D-06

 Cycle  16  Pass 1  IDiag  1:
 E= -1136.07204265862     Delta-E=       -0.000000000025 Rises=F Damp=F
 DIIS: error= 2.41D-08 at cycle  16 NSaved=  16.
 NSaved=16 IEnMin=16 EnMin= -1136.07204265862     IErMin=16 ErrMin= 2.41D-08
 ErrMax= 2.41D-08  0.00D+00 EMaxC= 1.00D-01 BMatC= 1.77D-13 BMatP= 9.38D-13
 IDIUse=1 WtCom= 1.00D+00 WtEn= 0.00D+00
 Coeff-Com: -0.121D-05 0.151D-05 0.128D-05-0.101D-05 0.368D-04 0.206D-03
 Coeff-Com:  0.268D-03-0.688D-03-0.330D-02-0.299D-02 0.639D-02 0.316D-01
 Coeff-Com:  0.457D-01-0.240D+00 0.750D-01 0.109D+01
 Coeff:     -0.121D-05 0.151D-05 0.128D-05-0.101D-05 0.368D-04 0.206D-03
 Coeff:      0.268D-03-0.688D-03-0.330D-02-0.299D-02 0.639D-02 0.316D-01
 Coeff:      0.457D-01-0.240D+00 0.750D-01 0.109D+01
 Gap=     0.055 Goal=   None    Shift=    0.000
 Gap=     0.046 Goal=   None    Shift=    0.000
 RMSDP=1.91D-07 MaxDP=1.34D-05 DE=-2.50D-11 OVMax= 2.89D-06

 Cycle  17  Pass 1  IDiag  1:
 E= -1136.07204265863     Delta-E=       -0.000000000011 Rises=F Damp=F
 DIIS: error= 1.00D-08 at cycle  17 NSaved=  17.
 NSaved=17 IEnMin=17 EnMin= -1136.07204265863     IErMin=17 ErrMin= 1.00D-08
 ErrMax= 1.00D-08  0.00D+00 EMaxC= 1.00D-01 BMatC= 4.15D-14 BMatP= 1.77D-13
 IDIUse=1 WtCom= 1.00D+00 WtEn= 0.00D+00
 Coeff-Com:  0.402D-06-0.574D-06-0.201D-05-0.195D-05-0.110D-04 0.943D-05
 Coeff-Com:  0.344D-04 0.343D-03-0.575D-03-0.188D-02-0.228D-02 0.394D-02
 Coeff-Com:  0.348D-01-0.258D-01-0.232D+00 0.214D+00 0.101D+01
 Coeff:      0.402D-06-0.574D-06-0.201D-05-0.195D-05-0.110D-04 0.943D-05
 Coeff:      0.344D-04 0.343D-03-0.575D-03-0.188D-02-0.228D-02 0.394D-02
 Coeff:      0.348D-01-0.258D-01-0.232D+00 0.214D+00 0.101D+01
 Gap=     0.055 Goal=   None    Shift=    0.000
 Gap=     0.046 Goal=   None    Shift=    0.000
 RMSDP=8.31D-08 MaxDP=5.49D-06 DE=-1.07D-11 OVMax= 9.89D-07

 Cycle  18  Pass 1  IDiag  1:
 E= -1136.07204265861     Delta-E=        0.000000000018 Rises=F Damp=F
 DIIS: error= 3.59D-09 at cycle  18 NSaved=  18.
 NSaved=18 IEnMin=17 EnMin= -1136.07204265863     IErMin=18 ErrMin= 3.59D-09
 ErrMax= 3.59D-09  0.00D+00 EMaxC= 1.00D-01 BMatC= 4.31D-15 BMatP= 4.15D-14
 IDIUse=1 WtCom= 1.00D+00 WtEn= 0.00D+00
 Coeff-Com:  0.279D-06-0.354D-06-0.465D-06 0.978D-07-0.684D-05-0.436D-04
 Coeff-Com: -0.436D-04 0.146D-03 0.599D-03 0.441D-03-0.145D-02-0.553D-02
 Coeff-Com: -0.409D-02 0.374D-01-0.187D-01-0.176D+00 0.438D-01 0.112D+01
 Coeff:      0.279D-06-0.354D-06-0.465D-06 0.978D-07-0.684D-05-0.436D-04
 Coeff:     -0.436D-04 0.146D-03 0.599D-03 0.441D-03-0.145D-02-0.553D-02
 Coeff:     -0.409D-02 0.374D-01-0.187D-01-0.176D+00 0.438D-01 0.112D+01
 Gap=     0.055 Goal=   None    Shift=    0.000
 Gap=     0.046 Goal=   None    Shift=    0.000
 RMSDP=3.86D-08 MaxDP=2.62D-06 DE= 1.82D-11 OVMax= 3.21D-07

 Cycle  19  Pass 1  IDiag  1:
 E= -1136.07204265861     Delta-E=       -0.000000000003 Rises=F Damp=F
 DIIS: error= 1.29D-09 at cycle  19 NSaved=  19.
 NSaved=19 IEnMin=17 EnMin= -1136.07204265863     IErMin=19 ErrMin= 1.29D-09
 ErrMax= 1.29D-09  0.00D+00 EMaxC= 1.00D-01 BMatC= 3.91D-16 BMatP= 4.31D-15
 IDIUse=1 WtCom= 1.00D+00 WtEn= 0.00D+00
 Large coefficients: NSaved= 19 BigCof=    0.00 CofMax=   10.00 Det=-1.04D-15
 Inversion failed.  Reducing to 18 matrices.
 Large coefficients: NSaved= 18 BigCof=    0.00 CofMax=   10.00 Det=-1.26D-15
 Inversion failed.  Reducing to 17 matrices.
 Large coefficients: NSaved= 17 BigCof=    0.00 CofMax=   10.00 Det=-1.33D-15
 Inversion failed.  Reducing to 16 matrices.
 Large coefficients: NSaved= 16 BigCof=    0.00 CofMax=   10.00 Det=-1.33D-15
 Inversion failed.  Reducing to 15 matrices.
 Coeff-Com: -0.531D-06-0.400D-05-0.497D-05-0.144D-04 0.109D-03 0.167D-03
 Coeff-Com:  0.748D-04-0.771D-03-0.349D-02 0.467D-02 0.196D-01-0.222D-01
 Coeff-Com: -0.961D-01-0.149D-02 0.110D+01
 Coeff:     -0.531D-06-0.400D-05-0.497D-05-0.144D-04 0.109D-03 0.167D-03
 Coeff:      0.748D-04-0.771D-03-0.349D-02 0.467D-02 0.196D-01-0.222D-01
 Coeff:     -0.961D-01-0.149D-02 0.110D+01
 Gap=     0.055 Goal=   None    Shift=    0.000
 Gap=     0.046 Goal=   None    Shift=    0.000
 RMSDP=1.15D-08 MaxDP=9.31D-07 DE=-2.73D-12 OVMax= 8.20D-08

 Cycle  20  Pass 1  IDiag  1:
 E= -1136.07204265861     Delta-E=       -0.000000000003 Rises=F Damp=F
 DIIS: error= 4.47D-10 at cycle  20 NSaved=  16.
 NSaved=16 IEnMin=13 EnMin= -1136.07204265863     IErMin=16 ErrMin= 4.47D-10
 ErrMax= 4.47D-10  0.00D+00 EMaxC= 1.00D-01 BMatC= 7.16D-17 BMatP= 3.91D-16
 IDIUse=1 WtCom= 1.00D+00 WtEn= 0.00D+00
 Large coefficients: NSaved= 16 BigCof=    0.00 CofMax=   10.00 Det=-1.42D-16
 Inversion failed.  Reducing to 15 matrices.
 Coeff-Com:  0.606D-06 0.221D-05 0.492D-05-0.291D-04-0.472D-04 0.119D-04
 Coeff-Com:  0.247D-03 0.217D-03-0.112D-02 0.100D-02 0.527D-02-0.963D-02
 Coeff-Com: -0.576D-01 0.877D-01 0.974D+00
 Coeff:      0.606D-06 0.221D-05 0.492D-05-0.291D-04-0.472D-04 0.119D-04
 Coeff:      0.247D-03 0.217D-03-0.112D-02 0.100D-02 0.527D-02-0.963D-02
 Coeff:     -0.576D-01 0.877D-01 0.974D+00
 Gap=     0.055 Goal=   None    Shift=    0.000
 Gap=     0.046 Goal=   None    Shift=    0.000
 RMSDP=6.97D-09 MaxDP=4.10D-07 DE=-2.50D-12 OVMax= 2.50D-08

 SCF Done:  E(UB3LYP) =  -1136.07204266     A.U. after   20 cycles
            NFock= 20  Conv=0.70D-08     -V/T= 2.0023
 <Sx>= 0.0000 <Sy>= 0.0000 <Sz>= 0.5000 <S**2>= 0.7604 S= 0.5052
 <L.S>= 0.000000000000E+00
 KE= 1.133513617715D+03 PE=-3.544401956075D+03 EE= 8.672906296116D+02
 Annihilation of the first spin contaminant:
 S**2 before annihilation     0.7604,   after     0.7501
 Leave Link  502 at Mon Nov 13 18:09:46 2023, MaxMem=  1879048192 cpu:             212.8 elap:              18.0
 (Enter /home/sekinelabo/g16/l601.exe)
 Copying SCF densities to generalized density rwf, IOpCl= 1 IROHF=0.

 **********************************************************************

            Population analysis using the SCF Density.

 **********************************************************************

 Orbital symmetries:
 Alpha Orbitals:
       Occupied  (A) (A) (A) (A) (A) (A) (A) (A) (A) (A) (A) (A)
                 (A) (A) (A) (A) (A) (A) (A) (A) (A) (A) (A) (A)
                 (A) (A) (A) (A) (A) (A) (A) (A) (A) (A) (A) (A)
                 (A) (A) (A)
       Virtual   (A) (A) (A) (A) (A) (A) (A) (A) (A) (A) (A) (A)
                 (A) (A) (A) (A) (A) (A) (A) (A) (A) (A) (A) (A)
                 (A) (A) (A) (A) (A) (A) (A) (A) (A) (A) (A) (A)
                 (A) (A) (A) (A) (A) (A) (A) (A) (A) (A) (A) (A)
                 (A) (A) (A) (A) (A) (A) (A) (A) (A) (A) (A) (A)
                 (A) (A) (A) (A) (A) (A) (A) (A) (A) (A) (A) (A)
                 (A) (A) (A) (A) (A) (A) (A) (A) (A) (A) (A) (A)
                 (A) (A) (A) (A) (A) (A) (A) (A) (A) (A) (A) (A)
                 (A) (A) (A) (A) (A) (A) (A) (A) (A) (A) (A) (A)
                 (A) (A) (A) (A) (A) (A) (A) (A) (A) (A) (A) (A)
                 (A) (A) (A) (A) (A) (A) (A) (A) (A) (A) (A) (A)
                 (A) (A) (A) (A) (A) (A) (A) (A) (A) (A) (A) (A)
                 (A) (A) (A) (A) (A) (A) (A) (A) (A) (A) (A) (A)
                 (A) (A) (A) (A) (A) (A) (A) (A) (A) (A) (A) (A)
                 (A) (A)
 Beta  Orbitals:
       Occupied  (A) (A) (A) (A) (A) (A) (A) (A) (A) (A) (A) (A)
                 (A) (A) (A) (A) (A) (A) (A) (A) (A) (A) (A) (A)
                 (A) (A) (A) (A) (A) (A) (A) (A) (A) (A) (A) (A)
                 (A) (A)
       Virtual   (A) (A) (A) (A) (A) (A) (A) (A) (A) (A) (A) (A)
                 (A) (A) (A) (A) (A) (A) (A) (A) (A) (A) (A) (A)
                 (A) (A) (A) (A) (A) (A) (A) (A) (A) (A) (A) (A)
                 (A) (A) (A) (A) (A) (A) (A) (A) (A) (A) (A) (A)
                 (A) (A) (A) (A) (A) (A) (A) (A) (A) (A) (A) (A)
                 (A) (A) (A) (A) (A) (A) (A) (A) (A) (A) (A) (A)
                 (A) (A) (A) (A) (A) (A) (A) (A) (A) (A) (A) (A)
                 (A) (A) (A) (A) (A) (A) (A) (A) (A) (A) (A) (A)
                 (A) (A) (A) (A) (A) (A) (A) (A) (A) (A) (A) (A)
                 (A) (A) (A) (A) (A) (A) (A) (A) (A) (A) (A) (A)
                 (A) (A) (A) (A) (A) (A) (A) (A) (A) (A) (A) (A)
                 (A) (A) (A) (A) (A) (A) (A) (A) (A) (A) (A) (A)
                 (A) (A) (A) (A) (A) (A) (A) (A) (A) (A) (A) (A)
                 (A) (A) (A) (A) (A) (A) (A) (A) (A) (A) (A) (A)
                 (A) (A) (A)
 The electronic state is 2-A.
 Alpha  occ. eigenvalues --  -38.44664 -38.44576 -38.44471 -38.43959 -38.43904
 Alpha  occ. eigenvalues --  -38.43545 -38.43291  -2.20795  -2.20602  -2.20587
 Alpha  occ. eigenvalues --   -2.20337  -2.19933  -2.19762  -2.19459  -1.14800
 Alpha  occ. eigenvalues --   -1.14637  -1.14464  -1.14411  -1.14392  -1.14289
 Alpha  occ. eigenvalues --   -1.14230  -1.14171  -1.14102  -1.14056  -1.13990
 Alpha  occ. eigenvalues --   -1.13855  -1.13691  -1.13551  -1.13511  -1.13439
 Alpha  occ. eigenvalues --   -1.13366  -1.13293  -1.13096  -1.13068  -1.13007
 Alpha  occ. eigenvalues --   -0.21295  -0.14848  -0.12240  -0.11622
 Alpha virt. eigenvalues --   -0.06163  -0.04872  -0.04015  -0.03578  -0.02530
 Alpha virt. eigenvalues --   -0.02114  -0.01817  -0.00651  -0.00080   0.00270
 Alpha virt. eigenvalues --    0.00462   0.00611   0.00902   0.00960   0.01065
 Alpha virt. eigenvalues --    0.01136   0.01250   0.01366   0.01478   0.01540
 Alpha virt. eigenvalues --    0.01709   0.01812   0.01927   0.02040   0.02112
 Alpha virt. eigenvalues --    0.02457   0.02587   0.02809   0.02868   0.02924
 Alpha virt. eigenvalues --    0.03006   0.03029   0.03164   0.03182   0.03227
 Alpha virt. eigenvalues --    0.03281   0.03383   0.04073   0.04097   0.04501
 Alpha virt. eigenvalues --    0.04710   0.04750   0.04857   0.05086   0.05476
 Alpha virt. eigenvalues --    0.05545   0.05692   0.05904   0.06224   0.06417
 Alpha virt. eigenvalues --    0.06688   0.07073   0.07403   0.07645   0.07701
 Alpha virt. eigenvalues --    0.08192   0.08672   0.08986   0.09040   0.09978
 Alpha virt. eigenvalues --    0.10411   0.11207   0.11396   0.12229   0.12695
 Alpha virt. eigenvalues --    0.13139   0.13304   0.13728   0.14019   0.14311
 Alpha virt. eigenvalues --    0.14744   0.15093   0.15404   0.15683   0.16177
 Alpha virt. eigenvalues --    0.16330   0.17415   0.17800   0.22025   0.22445
 Alpha virt. eigenvalues --    0.24515   0.26860   0.27824   0.28974   0.30428
 Alpha virt. eigenvalues --    0.31808   0.32409   0.32988   0.33944   0.34011
 Alpha virt. eigenvalues --    0.35734   0.36912   0.37474   0.39024   0.39360
 Alpha virt. eigenvalues --    0.40475   0.42408   0.43775   0.44384   0.44526
 Alpha virt. eigenvalues --    0.45086   0.45322   0.45571   0.46222   0.46728
 Alpha virt. eigenvalues --    0.47042   0.48276   0.48645   0.49488   0.49529
 Alpha virt. eigenvalues --    0.50027   0.50475   0.50953   0.51357   0.52408
 Alpha virt. eigenvalues --    0.53213   0.54630   0.55899   0.56890   0.58340
 Alpha virt. eigenvalues --    0.59055   0.59394   0.65288   0.68126   0.69041
 Alpha virt. eigenvalues --    0.71592   0.74307   0.75403   0.77637   0.79912
 Alpha virt. eigenvalues --    0.81054   0.82380   0.83870   0.87346   0.88792
 Alpha virt. eigenvalues --    2.14648   2.21183   2.23680   2.24559   2.26787
 Alpha virt. eigenvalues --    2.34908   2.40053   4.40921   4.41853   4.42095
 Alpha virt. eigenvalues --    4.43163   4.43464   4.43677   4.45537   4.46879
 Alpha virt. eigenvalues --    4.49014   4.51852   4.55552   4.60176   4.65562
 Alpha virt. eigenvalues --    4.73031   4.74243   4.77702   4.79530   4.81474
 Alpha virt. eigenvalues --    4.84298   4.85521   4.90434  96.36713  96.47980
 Alpha virt. eigenvalues --   96.50504  96.51477  96.54874  96.65940  96.72884
  Beta  occ. eigenvalues --  -38.44627 -38.44567 -38.44456 -38.43894 -38.43890
  Beta  occ. eigenvalues --  -38.43474 -38.43267  -2.20733  -2.20588  -2.20566
  Beta  occ. eigenvalues --   -2.20223  -2.19913  -2.19637  -2.19423  -1.14763
  Beta  occ. eigenvalues --   -1.14586  -1.14420  -1.14381  -1.14349  -1.14284
  Beta  occ. eigenvalues --   -1.14197  -1.14123  -1.14034  -1.14022  -1.13928
  Beta  occ. eigenvalues --   -1.13781  -1.13637  -1.13527  -1.13487  -1.13361
  Beta  occ. eigenvalues --   -1.13271  -1.13206  -1.13070  -1.13045  -1.12929
  Beta  occ. eigenvalues --   -0.20506  -0.14519  -0.11962
  Beta virt. eigenvalues --   -0.07401  -0.06090  -0.04871  -0.03532  -0.03068
  Beta virt. eigenvalues --   -0.01869  -0.01659  -0.01075  -0.00601   0.00118
  Beta virt. eigenvalues --    0.00323   0.00451   0.00598   0.00940   0.00970
  Beta virt. eigenvalues --    0.01108   0.01297   0.01381   0.01467   0.01580
  Beta virt. eigenvalues --    0.01711   0.01857   0.01885   0.01993   0.02066
  Beta virt. eigenvalues --    0.02274   0.02485   0.02592   0.02812   0.02888
  Beta virt. eigenvalues --    0.02933   0.03052   0.03145   0.03191   0.03257
  Beta virt. eigenvalues --    0.03343   0.03364   0.03478   0.04198   0.04313
  Beta virt. eigenvalues --    0.04652   0.04802   0.04891   0.05005   0.05194
  Beta virt. eigenvalues --    0.05575   0.05705   0.05819   0.06082   0.06376
  Beta virt. eigenvalues --    0.06471   0.06857   0.07095   0.07520   0.07707
  Beta virt. eigenvalues --    0.07891   0.08304   0.08709   0.09123   0.09284
  Beta virt. eigenvalues --    0.10194   0.10774   0.11346   0.11819   0.12410
  Beta virt. eigenvalues --    0.12897   0.13359   0.13512   0.13863   0.14344
  Beta virt. eigenvalues --    0.14537   0.14967   0.15349   0.15693   0.15924
  Beta virt. eigenvalues --    0.16442   0.16668   0.17619   0.18288   0.22235
  Beta virt. eigenvalues --    0.22721   0.24582   0.27237   0.28150   0.29259
  Beta virt. eigenvalues --    0.30884   0.32187   0.32602   0.33197   0.34215
  Beta virt. eigenvalues --    0.34458   0.35983   0.37225   0.37759   0.39391
  Beta virt. eigenvalues --    0.39715   0.40815   0.42654   0.43874   0.44597
  Beta virt. eigenvalues --    0.44733   0.45241   0.45584   0.45732   0.46292
  Beta virt. eigenvalues --    0.47006   0.47200   0.48468   0.48888   0.49608
  Beta virt. eigenvalues --    0.49655   0.50170   0.50704   0.51194   0.51491
  Beta virt. eigenvalues --    0.52645   0.53418   0.54973   0.56113   0.57334
  Beta virt. eigenvalues --    0.58605   0.59439   0.59660   0.65758   0.68438
  Beta virt. eigenvalues --    0.69280   0.71750   0.74462   0.75457   0.77805
  Beta virt. eigenvalues --    0.79974   0.81196   0.82620   0.84046   0.87379
  Beta virt. eigenvalues --    0.89109   2.14705   2.21230   2.23786   2.24602
  Beta virt. eigenvalues --    2.26928   2.35138   2.40302   4.40999   4.41934
  Beta virt. eigenvalues --    4.42162   4.43210   4.43544   4.43721   4.45595
  Beta virt. eigenvalues --    4.46949   4.49060   4.51938   4.55608   4.60245
  Beta virt. eigenvalues --    4.65661   4.73070   4.74304   4.77753   4.79607
  Beta virt. eigenvalues --    4.81529   4.84334   4.85556   4.90504  96.36738
  Beta virt. eigenvalues --   96.47994  96.50550  96.51492  96.54917  96.66012
  Beta virt. eigenvalues --   96.72962
          Condensed to atoms (all electrons):
               1          2          3          4          5          6
     1  Na  16.409675  -0.569354   0.170368  -2.868362  -0.804136  -0.481384
     2  Na  -0.569354  14.706707  -1.257898  -1.833230  -0.429151  -0.069995
     3  Na   0.170368  -1.257898  14.704346   1.074442   1.415896  -1.540549
     4  Na  -2.868362  -1.833230   1.074442  14.892384   1.269691  -0.544924
     5  Na  -0.804136  -0.429151   1.415896   1.269691  12.686134  -0.774917
     6  Na  -0.481384  -0.069995  -1.540549  -0.544924  -0.774917  12.694699
     7  Na   0.306548   0.822736  -3.552675  -1.544029  -2.462039   1.503448
               7
     1  Na   0.306548
     2  Na   0.822736
     3  Na  -3.552675
     4  Na  -1.544029
     5  Na  -2.462039
     6  Na   1.503448
     7  Na  15.245080
          Atomic-Atomic Spin Densities.
               1          2          3          4          5          6
     1  Na   1.426153  -0.987625  -0.600331  -0.757975  -0.560700   0.525052
     2  Na  -0.987625   1.338363   0.501768   0.247879   0.478947  -0.692136
     3  Na  -0.600331   0.501768  -0.234353   0.047253   0.003403   0.332305
     4  Na  -0.757975   0.247879   0.047253   0.437430   0.159399   0.182111
     5  Na  -0.560700   0.478947   0.003403   0.159399   0.062311   0.142111
     6  Na   0.525052  -0.692136   0.332305   0.182111   0.142111  -0.083155
     7  Na   0.958796  -0.630059   0.093020  -0.230128  -0.108877  -0.222248
               7
     1  Na   0.958796
     2  Na  -0.630059
     3  Na   0.093020
     4  Na  -0.230128
     5  Na  -0.108877
     6  Na  -0.222248
     7  Na   0.289322
 Mulliken charges and spin densities:
               1          2
     1  Na  -1.163357   0.003369
     2  Na  -0.369815   0.257137
     3  Na  -0.013931   0.143064
     4  Na   0.554028   0.085970
     5  Na   0.098522   0.176594
     6  Na   0.213623   0.184040
     7  Na   0.680930   0.149826
 Sum of Mulliken charges =  -0.00000   1.00000
 Mulliken charges and spin densities with hydrogens summed into heavy atoms:
               1          2
     1  Na  -1.163357   0.003369
     2  Na  -0.369815   0.257137
     3  Na  -0.013931   0.143064
     4  Na   0.554028   0.085970
     5  Na   0.098522   0.176594
     6  Na   0.213623   0.184040
     7  Na   0.680930   0.149826
 Electronic spatial extent (au):  <R**2>=           1676.9934
 Charge=              0.0000 electrons
 Dipole moment (field-independent basis, Debye):
    X=              0.2517    Y=             -0.1747    Z=              0.2214  Tot=              0.3781
 Quadrupole moment (field-independent basis, Debye-Ang):
   XX=            -51.6234   YY=            -72.0803   ZZ=            -71.8977
   XY=             -0.1740   XZ=              0.4993   YZ=              0.4924
 Traceless Quadrupole moment (field-independent basis, Debye-Ang):
   XX=             13.5771   YY=             -6.8798   ZZ=             -6.6972
   XY=             -0.1740   XZ=              0.4993   YZ=              0.4924
 Octapole moment (field-independent basis, Debye-Ang**2):
  XXX=              9.3243  YYY=             -1.7359  ZZZ=              2.0365  XYY=              2.3292
  XXY=              4.3996  XXZ=             -3.3866  XZZ=             -0.9502  YZZ=             -5.6342
  YYZ=              3.7050  XYZ=             -5.7809
 Hexadecapole moment (field-independent basis, Debye-Ang**3):
 XXXX=          -1242.9005 YYYY=          -1017.5082 ZZZZ=           -604.0221 XXXY=              6.1815
 XXXZ=              4.7620 YYYX=            -17.6057 YYYZ=             11.9041 ZZZX=             -6.4939
 ZZZY=             -4.6345 XXYY=           -350.9683 XXZZ=           -354.0600 YYZZ=           -273.4758
 XXYZ=              1.7449 YYXZ=             13.6287 ZZXY=              9.8079
 N-N= 4.075256660898D+02 E-N=-3.544401956271D+03  KE= 1.133513617715D+03
                          Isotropic Fermi Contact Couplings
        Atom                 a.u.       MegaHertz       Gauss      10(-4) cm-1
     1  Na(23)             0.22538     266.63473      95.14190      88.93977
     2  Na(23)             0.26433     312.71181     111.58335     104.30943
     3  Na(23)             0.00614       7.26895       2.59374       2.42466
     4  Na(23)             0.00691       8.17054       2.91545       2.72540
     5  Na(23)             0.02139      25.30793       9.03050       8.44182
     6  Na(23)            -0.01636     -19.35873      -6.90768      -6.45738
     7  Na(23)             0.10841     128.25073      45.76305      42.77984
 --------------------------------------------------------
       Center         ----  Spin Dipole Couplings  ----
                      3XX-RR        3YY-RR        3ZZ-RR
 --------------------------------------------------------
     1   Atom       -0.001475     -0.016775      0.018250
     2   Atom       -0.005819      0.013856     -0.008037
     3   Atom       -0.013890     -0.020060      0.033950
     4   Atom       -0.007873     -0.017521      0.025393
     5   Atom       -0.027789     -0.022056      0.049845
     6   Atom       -0.022855     -0.035511      0.058366
     7   Atom       -0.016163     -0.011749      0.027911
 --------------------------------------------------------
                        XY            XZ            YZ
 --------------------------------------------------------
     1   Atom        0.008561      0.016413      0.001967
     2   Atom        0.001378      0.005513      0.016612
     3   Atom       -0.004562     -0.019133      0.005125
     4   Atom        0.002880      0.008944      0.001721
     5   Atom        0.006174     -0.020608     -0.025426
     6   Atom       -0.000211      0.020875      0.011278
     7   Atom        0.006910     -0.019159     -0.024461
 --------------------------------------------------------


 ---------------------------------------------------------------------------------
              Anisotropic Spin Dipole Couplings in Principal Axis System
 ---------------------------------------------------------------------------------

       Atom             a.u.   MegaHertz   Gauss  10(-4) cm-1        Axes

              Baa    -0.0214    -3.026    -1.080    -1.009 -0.5002  0.8501  0.1647
     1 Na(23) Bbb    -0.0069    -0.975    -0.348    -0.325  0.7019  0.5094 -0.4978
              Bcc     0.0283     4.001     1.428     1.335  0.5071  0.1334  0.8515
 
              Baa    -0.0184    -2.602    -0.928    -0.868 -0.3242 -0.4219  0.8467
     2 Na(23) Bbb    -0.0049    -0.690    -0.246    -0.230  0.9367 -0.2682  0.2250
              Bcc     0.0233     3.292     1.175     1.098  0.1322  0.8661  0.4822
 
              Baa    -0.0233    -3.284    -1.172    -1.095  0.6832  0.7114  0.1648
     3 Na(23) Bbb    -0.0181    -2.551    -0.910    -0.851 -0.6497  0.6952 -0.3075
              Bcc     0.0413     5.835     2.082     1.946 -0.3333  0.1030  0.9372
 
              Baa    -0.0183    -2.588    -0.924    -0.863 -0.2811  0.9595  0.0197
     4 Na(23) Bbb    -0.0094    -1.333    -0.476    -0.445  0.9273  0.2769 -0.2518
              Bcc     0.0278     3.922     1.399     1.308  0.2470  0.0525  0.9676
 
              Baa    -0.0329    -4.650    -1.659    -1.551  0.9655  0.0493  0.2555
     5 Na(23) Bbb    -0.0301    -4.250    -1.516    -1.418 -0.1209  0.9545  0.2724
              Bcc     0.0630     8.900     3.176     2.969 -0.2305 -0.2939  0.9276
 
              Baa    -0.0375    -5.301    -1.892    -1.768  0.2507  0.9536 -0.1667
     6 Na(23) Bbb    -0.0271    -3.823    -1.364    -1.275  0.9402 -0.2809 -0.1926
              Bcc     0.0646     9.124     3.255     3.043  0.2305  0.1084  0.9670
 
              Baa    -0.0250    -3.533    -1.261    -1.179  0.6145  0.6076  0.5032
     7 Na(23) Bbb    -0.0211    -2.986    -1.066    -0.996  0.7256 -0.6856 -0.0584
              Bcc     0.0462     6.519     2.326     2.175 -0.3095 -0.4011  0.8622
 

 ---------------------------------------------------------------------------------

 No NMR shielding tensors so no spin-rotation constants.
 Leave Link  601 at Mon Nov 13 18:09:47 2023, MaxMem=  1879048192 cpu:               2.7 elap:               0.2
 (Enter /home/sekinelabo/g16/l701.exe)
 ... and contract with generalized density number  0.
 Compute integral first derivatives.
 Leave Link  701 at Mon Nov 13 18:09:47 2023, MaxMem=  1879048192 cpu:               1.7 elap:               0.1
 (Enter /home/sekinelabo/g16/l702.exe)
 L702 exits ... SP integral derivatives will be done elsewhere.
 Leave Link  702 at Mon Nov 13 18:09:47 2023, MaxMem=  1879048192 cpu:               0.5 elap:               0.0
 (Enter /home/sekinelabo/g16/l703.exe)
 Integral derivatives from FoFJK, PRISM(SPDF).
 Compute integral first derivatives, UseDBF=F ICtDFT=           0.
 Calling FoFJK, ICntrl=      2127 FMM=F ISym2X=0 I1Cent= 0 IOpClX= 1 NMat=1 NMatS=1 NMatT=0.
 FoFJK:  IHMeth= 1 ICntrl=    2127 DoSepK=F KAlg= 0 I1Cent=           0 FoldK=F
 IRaf=         0 NMat=       1 IRICut=       1 DoRegI=T DoRafI=F ISym2E= 0 IDoP0=0 IntGTp=1.
 FoFCou: FMM=F IPFlag=           0 FMFlag=      100000 FMFlg1=         800
         NFxFlg=           0 DoJE=F BraDBF=F KetDBF=F FulRan=T
         wScrn=  0.000000 ICntrl=      2127 IOpCl=  1 I1Cent=           0 NGrid=           0
         NMat0=    1 NMatS0=      1 NMatT0=    0 NMatD0=    1 NMtDS0=    0 NMtDT0=    0
 Symmetry not used in FoFCou.
 Leave Link  703 at Mon Nov 13 18:09:50 2023, MaxMem=  1879048192 cpu:              38.0 elap:               2.5
 (Enter /home/sekinelabo/g16/l716.exe)
 Dipole        = 9.90453180D-02-6.87441883D-02 8.71035600D-02
 ***** Axes restored to original set *****
 -------------------------------------------------------------------
 Center     Atomic                   Forces (Hartrees/Bohr)
 Number     Number              X              Y              Z
 -------------------------------------------------------------------
      1       11           0.003106994    0.001639656    0.025080709
      2       11           0.000067029    0.007059950   -0.022266182
      3       11           0.006941259    0.016885049   -0.004024205
      4       11           0.015988027   -0.009397872    0.002152324
      5       11           0.006807458   -0.022878777   -0.011291409
      6       11          -0.018759492   -0.016371673   -0.002105373
      7       11          -0.014151275    0.023063667    0.012454137
 -------------------------------------------------------------------
 Cartesian Forces:  Max     0.025080709 RMS     0.013962568
 Z-matrix is all fixed cartesians, so copy forces.
 Force constants in Cartesian coordinates: 
                1             2             3             4             5 
      1  0.243520D+00
      2  0.833949D-02  0.264628D+00
      3  0.864572D-02  0.305748D-02  0.340202D+00
      4 -0.214003D-01  0.710421D-02 -0.954494D-02  0.166402D+00
      5 -0.113192D-02 -0.185688D-01 -0.233749D-02  0.512122D-02  0.160058D+00
      6 -0.372845D-02  0.205291D-01 -0.638323D-01  0.724449D-02 -0.333402D-01
      7 -0.383959D-01 -0.654777D-02 -0.928664D-02 -0.464807D-01 -0.218492D-01
      8 -0.844374D-03 -0.372945D-01 -0.596431D-02  0.110341D-01 -0.390308D-01
      9  0.220977D-01  0.375014D-01 -0.575746D-01 -0.326063D-01 -0.136110D-01
     10 -0.493095D-01 -0.271171D-02 -0.129937D-01 -0.445389D-02  0.605992D-02
     11 -0.186918D-02 -0.580811D-01  0.332586D-02  0.861944D-02  0.539356D-02
     12  0.363192D-01 -0.154744D-01 -0.565609D-01 -0.153736D-01  0.656009D-02
     13 -0.393373D-01 -0.144171D-02 -0.223888D-02 -0.302007D-01  0.510212D-02
     14  0.265017D-02 -0.567326D-01  0.507867D-03  0.157279D-02 -0.480755D-01
     15 -0.462915D-05 -0.512013D-01 -0.659535D-01 -0.813017D-02  0.364543D-01
     16 -0.265523D-01 -0.133120D-01  0.100884D-01 -0.320668D-01 -0.285038D-02
     17 -0.198204D-02 -0.178937D-01  0.101165D-01 -0.256987D-01 -0.345522D-01
     18 -0.330863D-01 -0.208451D-01 -0.369571D-01  0.267456D-01  0.324046D-01
     19 -0.685251D-01  0.856948D-02  0.153300D-01 -0.317993D-01  0.954824D-02
     20 -0.516215D-02 -0.760579D-01 -0.870595D-02 -0.775312D-02 -0.252242D-01
     21 -0.302433D-01  0.264329D-01 -0.593236D-01  0.316649D-01 -0.261302D-01
                6             7             8             9            10 
      6  0.212306D+00
      7  0.531818D-02  0.122782D+00
      8  0.146373D-01  0.191176D-01  0.135911D+00
      9 -0.418230D-01  0.369677D-02 -0.206211D-01  0.967182D-01
     10 -0.305526D-02 -0.270945D-01 -0.136050D-01  0.455449D-03  0.129374D+00
     11  0.205016D-02  0.286059D-01 -0.508170D-01  0.890517D-02 -0.126529D-01
     12  0.596102D-02 -0.137874D-01  0.100942D-01 -0.184225D-01  0.129028D-01
     13  0.382975D-02 -0.138300D-02 -0.141642D-01 -0.687307D-03 -0.476853D-01
     14 -0.166201D-01  0.352930D-03 -0.223343D-01 -0.124211D-01  0.154920D-01
     15 -0.240955D-01  0.620321D-02  0.528926D-02 -0.302799D-03 -0.156166D-03
     16 -0.137374D-01 -0.225874D-02 -0.660817D-02  0.184309D-02 -0.405864D-02
     17  0.810910D-03 -0.121276D-01  0.698065D-02 -0.174357D-02 -0.695436D-03
     18 -0.303848D-01  0.425108D-02 -0.126435D-02  0.164652D-01 -0.221607D-03
     19  0.412865D-02 -0.716918D-02  0.506997D-02  0.520066D-02  0.322761D-02
     20  0.119329D-01 -0.755174D-02  0.658531D-02  0.199025D-02  0.811319D-02
     21 -0.581311D-01  0.360479D-02 -0.217093D-02  0.493951D-02  0.306846D-02
               11            12            13            14            15 
     11  0.121061D+00
     12 -0.104425D-01  0.801184D-01
     13 -0.310601D-01 -0.161187D-01  0.183512D+00
     14 -0.488940D-01  0.105214D-01 -0.798347D-02  0.240810D+00
     15 -0.665505D-03 -0.420482D-01 -0.249157D-02  0.204725D-01  0.166807D+00
     16 -0.997342D-03 -0.240560D-02 -0.702620D-01 -0.223101D-01 -0.637521D-03
     17  0.140269D-01 -0.278886D-02  0.368446D-01 -0.640344D-01  0.266609D-03
     18 -0.113725D-02  0.207630D-01  0.141176D-01  0.726787D-02 -0.526741D-01
     19  0.935427D-02 -0.153680D-02  0.535669D-02  0.102257D-01  0.521684D-02
     20  0.173104D-01  0.153007D-02  0.127027D-01 -0.738662D-03 -0.106158D-01
     21 -0.203596D-02  0.101891D-01  0.358916D-02 -0.972846D-02  0.182666D-01
               16            17            18            19            20 
     16  0.162503D+00
     17  0.313317D-01  0.164249D+00
     18 -0.389394D-02  0.306952D-02  0.116414D+00
     19 -0.273046D-01 -0.276725D-01 -0.791241D-02  0.126214D+00
     20  0.147463D-01 -0.687762D-01 -0.194952D-01 -0.150952D-01  0.146901D+00
     21  0.874294D-02 -0.973115D-02 -0.336259D-01 -0.204270D-01  0.233638D-01
               21 
     21  0.117685D+00
 Leave Link  716 at Mon Nov 13 18:09:50 2023, MaxMem=  1879048192 cpu:               0.5 elap:               0.0
 (Enter /home/sekinelabo/g16/l103.exe)

 GradGradGradGradGradGradGradGradGradGradGradGradGradGradGradGradGradGrad
 Berny optimization.
 Search for a local minimum.
 Step number   1 out of a maximum of    2
 All quantities printed in internal units (Hartrees-Bohrs-Radians)
 Second derivative matrix not updated -- first step.
 ITU=  0
     Eigenvalues ---    0.10166   0.10592   0.13924   0.16176   0.16586
     Eigenvalues ---    0.20471   0.21363   0.21576   0.24028   0.25911
     Eigenvalues ---    0.27884   0.29990   0.31036   0.36289   0.40634
 Quadratic step=4.047D-01 exceeds max=3.000D-01 adjusted using Lamda=-4.774D-02.
 Angle between NR and scaled steps=   4.58 degrees.
 Angle between quadratic step and forces=  16.87 degrees.
 Linear search not attempted -- first point.
 B after Tr=     0.000000   -0.000000    0.000000
         Rot=    1.000000   -0.000000   -0.000000   -0.000000 Ang=   0.00 deg.
 Variable       Old X    -DE/DX   Delta X   Delta X   Delta X     New X
                                 (Linear)    (Quad)   (Total)
    X1        5.04495   0.00311   0.00000   0.01163   0.01163   5.05658
    Y1        3.84314   0.00164   0.00000   0.00552   0.00552   3.84867
    Z1        5.26195   0.02508   0.00000   0.07018   0.07018   5.33213
    X2        3.36718   0.00007   0.00000  -0.01905  -0.01905   3.34813
    Y2        5.29014   0.00706   0.00000   0.03599   0.03599   5.32613
    Z2        0.00000  -0.02227   0.00000  -0.07850  -0.07850  -0.07850
    X3        8.23495   0.00694   0.00000   0.06343   0.06343   8.29838
    Y3        6.86910   0.01689   0.00000   0.08500   0.08500   6.95410
    Z3        1.98971  -0.00402   0.00000  -0.01639  -0.01639   1.97332
    X4        9.81175   0.01599   0.00000   0.11651   0.11651   9.92825
    Y4        1.83967  -0.00940   0.00000  -0.05220  -0.05220   1.78747
    Z4        3.47826   0.00215   0.00000   0.01765   0.01765   3.49591
    X5        4.90611   0.00681   0.00000   0.02595   0.02595   4.93206
    Y5        0.00000  -0.02288   0.00000  -0.10136  -0.10136  -0.10136
    Z5        1.87417  -0.01129   0.00000  -0.03657  -0.03657   1.83760
    X6        0.00000  -0.01876   0.00000  -0.10545  -0.10545  -0.10545
    Y6        1.34529  -0.01637   0.00000  -0.06945  -0.06945   1.27584
    Z6        2.45377  -0.00211   0.00000  -0.00857  -0.00857   2.44520
    X7        0.51604  -0.01415   0.00000  -0.09302  -0.09302   0.42302
    Y7        6.04971   0.02306   0.00000   0.09650   0.09650   6.14622
    Z7        4.37658   0.01245   0.00000   0.05221   0.05221   4.42878
         Item               Value     Threshold  Converged?
 Maximum Force            0.025081     0.000450     NO 
 RMS     Force            0.013963     0.000300     NO 
 Maximum Displacement     0.116506     0.001800     NO 
 RMS     Displacement     0.065476     0.001200     NO 
 Predicted change in Energy=-1.133523D-02
 GradGradGradGradGradGradGradGradGradGradGradGradGradGradGradGradGradGrad

 Leave Link  103 at Mon Nov 13 18:09:50 2023, MaxMem=  1879048192 cpu:               0.3 elap:               0.0
 (Enter /home/sekinelabo/g16/l9999.exe)
 1\1\GINC-SEKINELABO-XA7R-R37\Force\UB3LYP\6-311+G(d)\Na7(2)\SEKINELABO
 \13-Nov-2023\0\\#P B3LYP/6-311+g(d) force\\Gaussian input prepared by 
 ASE\\0,2\Na,2.6696726248,2.0337047013,2.7845051147\Na,1.7818326135,2.7
 994235269,0.\Na,4.3577468046,3.6349714435,1.052911426\Na,5.1921529092,
 0.9735130003,1.8406179388\Na,2.5961996428,0.,0.9917703933\Na,0.,0.7118
 970049,1.2984776439\Na,0.2730762247,3.2013712045,2.3159839166\\Version
 =ES64L-G16RevB.01\State=2-A\HF=-1136.0720427\S2=0.760366\S2-1=0.\S2A=0
 .750074\RMSD=6.969e-09\RMSF=1.396e-02\Dipole=0.0990453,0.0687442,-0.08
 71036\Quadrupole=10.094217,-5.1149819,-4.9792351,0.1293279,-0.3711944,
 0.3661085\PG=C01 [X(Na7)]\\@


 TWO ROADS DIVERGED IN A WOOD, AND I--
 I TOOK THE ONE LESS TRAVELED BY,
 AND THAT HAS MADE ALL THE DIFFERENCE.

                       -- ROBERT FROST
 Job cpu time:       0 days  0 hours  4 minutes 29.4 seconds.
 Elapsed time:       0 days  0 hours  0 minutes 21.7 seconds.
 File lengths (MBytes):  RWF=     32 Int=      0 D2E=      0 Chk=      5 Scr=      1
 Normal termination of Gaussian 16 at Mon Nov 13 18:09:50 2023.
