 Entering Gaussian System, Link 0=g16
 Initial command:
 /home/sekinelabo/g16/l1.exe "/home/sekinelabo/g16temp/Gau-4070418.inp" -scrdir="/home/sekinelabo/g16temp/"
 Entering Link 1 = /home/sekinelabo/g16/l1.exe PID=   4070420.
  
 Copyright (c) 1988-2017, Gaussian, Inc.  All Rights Reserved.
  
 This is part of the Gaussian(R) 16 program.  It is based on
 the Gaussian(R) 09 system (copyright 2009, Gaussian, Inc.),
 the Gaussian(R) 03 system (copyright 2003, Gaussian, Inc.),
 the Gaussian(R) 98 system (copyright 1998, Gaussian, Inc.),
 the Gaussian(R) 94 system (copyright 1995, Gaussian, Inc.),
 the Gaussian 92(TM) system (copyright 1992, Gaussian, Inc.),
 the Gaussian 90(TM) system (copyright 1990, Gaussian, Inc.),
 the Gaussian 88(TM) system (copyright 1988, Gaussian, Inc.),
 the Gaussian 86(TM) system (copyright 1986, Carnegie Mellon
 University), and the Gaussian 82(TM) system (copyright 1983,
 Carnegie Mellon University). Gaussian is a federally registered
 trademark of Gaussian, Inc.
  
 This software contains proprietary and confidential information,
 including trade secrets, belonging to Gaussian, Inc.
  
 This software is provided under written license and may be
 used, copied, transmitted, or stored only in accord with that
 written license.
  
 The following legend is applicable only to US Government
 contracts under FAR:
  
                    RESTRICTED RIGHTS LEGEND
  
 Use, reproduction and disclosure by the US Government is
 subject to restrictions as set forth in subparagraphs (a)
 and (c) of the Commercial Computer Software - Restricted
 Rights clause in FAR 52.227-19.
  
 Gaussian, Inc.
 340 Quinnipiac St., Bldg. 40, Wallingford CT 06492
  
  
 ---------------------------------------------------------------
 Warning -- This program may not be used in any manner that
 competes with the business of Gaussian, Inc. or will provide
 assistance to any competitor of Gaussian, Inc.  The licensee
 of this program is prohibited from giving any competitor of
 Gaussian, Inc. access to this program.  By using this program,
 the user acknowledges that Gaussian, Inc. is engaged in the
 business of creating and licensing software in the field of
 computational chemistry and represents and warrants to the
 licensee that it is not a competitor of Gaussian, Inc. and that
 it will not use this program in any manner prohibited above.
 ---------------------------------------------------------------
  

 Cite this work as:
 Gaussian 16, Revision B.01,
 M. J. Frisch, G. W. Trucks, H. B. Schlegel, G. E. Scuseria, 
 M. A. Robb, J. R. Cheeseman, G. Scalmani, V. Barone, 
 G. A. Petersson, H. Nakatsuji, X. Li, M. Caricato, A. V. Marenich, 
 J. Bloino, B. G. Janesko, R. Gomperts, B. Mennucci, H. P. Hratchian, 
 J. V. Ortiz, A. F. Izmaylov, J. L. Sonnenberg, D. Williams-Young, 
 F. Ding, F. Lipparini, F. Egidi, J. Goings, B. Peng, A. Petrone, 
 T. Henderson, D. Ranasinghe, V. G. Zakrzewski, J. Gao, N. Rega, 
 G. Zheng, W. Liang, M. Hada, M. Ehara, K. Toyota, R. Fukuda, 
 J. Hasegawa, M. Ishida, T. Nakajima, Y. Honda, O. Kitao, H. Nakai, 
 T. Vreven, K. Throssell, J. A. Montgomery, Jr., J. E. Peralta, 
 F. Ogliaro, M. J. Bearpark, J. J. Heyd, E. N. Brothers, K. N. Kudin, 
 V. N. Staroverov, T. A. Keith, R. Kobayashi, J. Normand, 
 K. Raghavachari, A. P. Rendell, J. C. Burant, S. S. Iyengar, 
 J. Tomasi, M. Cossi, J. M. Millam, M. Klene, C. Adamo, R. Cammi, 
 J. W. Ochterski, R. L. Martin, K. Morokuma, O. Farkas, 
 J. B. Foresman, and D. J. Fox, Gaussian, Inc., Wallingford CT, 2016.
 
 ******************************************
 Gaussian 16:  ES64L-G16RevB.01 20-Dec-2017
                13-Nov-2023 
 ******************************************
 %mem=14GB
 %chk=checkpoint.chk
 %nprocshared=16
 Will use up to   16 processors via shared memory.
 -------------------------
 #P B3LYP/6-311+g(d) force
 -------------------------
 1/10=7,30=1,38=1/1,3;
 2/12=2,17=6,18=5,40=1/2;
 3/5=4,6=6,7=11,11=2,25=1,30=1,71=1,74=-5/1,2,3;
 4//1;
 5/5=2,38=5/2;
 6/7=2,8=2,9=2,10=2,28=1/1;
 7/29=1/1,2,3,16;
 1/10=7,30=1/3;
 99//99;
 Leave Link    1 at Mon Nov 13 17:05:53 2023, MaxMem=  1879048192 cpu:               0.3 elap:               0.0
 (Enter /home/sekinelabo/g16/l101.exe)
 ------------------------------
 Gaussian input prepared by ASE
 ------------------------------
 Symbolic Z-matrix:
 Charge =  0 Multiplicity = 2
 Na                    2.70703   3.53343   1.26865 
 Na                    2.34768   1.08273   2.9669 
 Na                    4.92334   1.79441   1.88326 
 Na                    2.84416   0.59239   0.29481 
 Na                    0.14579   0.        1.7008 
 Na                    0.        2.94076   2.67183 
 Na                    0.50339   2.45573   0. 
 
 ITRead=  0  0  0  0  0  0  0
 MicOpt= -1 -1 -1 -1 -1 -1 -1
 NAtoms=      7 NQM=        7 NQMF=       0 NMMI=      0 NMMIF=      0
                NMic=       0 NMicF=      0.
                    Isotopes and Nuclear Properties:
 (Nuclear quadrupole moments (NQMom) in fm**2, nuclear magnetic moments (NMagM)
  in nuclear magnetons)

  Atom         1           2           3           4           5           6           7
 IAtWgt=          23          23          23          23          23          23          23
 AtmWgt=  22.9897697  22.9897697  22.9897697  22.9897697  22.9897697  22.9897697  22.9897697
 NucSpn=           3           3           3           3           3           3           3
 AtZEff=  -0.0000000  -0.0000000  -0.0000000  -0.0000000  -0.0000000  -0.0000000  -0.0000000
 NQMom=   10.4000000  10.4000000  10.4000000  10.4000000  10.4000000  10.4000000  10.4000000
 NMagM=    2.2175200   2.2175200   2.2175200   2.2175200   2.2175200   2.2175200   2.2175200
 AtZNuc=  11.0000000  11.0000000  11.0000000  11.0000000  11.0000000  11.0000000  11.0000000
 Leave Link  101 at Mon Nov 13 17:05:53 2023, MaxMem=  1879048192 cpu:               2.6 elap:               0.2
 (Enter /home/sekinelabo/g16/l103.exe)

 GradGradGradGradGradGradGradGradGradGradGradGradGradGradGradGradGradGrad
 Berny optimization.
 Initialization pass.
 Trust Radius=3.00D-01 FncErr=1.00D-07 GrdErr=1.00D-07 EigMax=2.50D+02 EigMin=1.00D-04
 Number of steps in this run=      2 maximum allowed number of steps=      2.
 GradGradGradGradGradGradGradGradGradGradGradGradGradGradGradGradGradGrad

 Leave Link  103 at Mon Nov 13 17:05:53 2023, MaxMem=  1879048192 cpu:               0.2 elap:               0.0
 (Enter /home/sekinelabo/g16/l202.exe)
                          Input orientation:                          
 ---------------------------------------------------------------------
 Center     Atomic      Atomic             Coordinates (Angstroms)
 Number     Number       Type             X           Y           Z
 ---------------------------------------------------------------------
      1         11           0        2.707034    3.533431    1.268650
      2         11           0        2.347681    1.082733    2.966905
      3         11           0        4.923345    1.794405    1.883260
      4         11           0        2.844162    0.592393    0.294812
      5         11           0        0.145792    0.000000    1.700803
      6         11           0        0.000000    2.940755    2.671832
      7         11           0        0.503394    2.455725    0.000000
 ---------------------------------------------------------------------
                    Distance matrix (angstroms):
                    1          2          3          4          5
     1  Na   0.000000
     2  Na   3.003186   0.000000
     3  Na   2.883399   2.883541   0.000000
     4  Na   3.101108   2.761704   2.879410   0.000000
     5  Na   4.385414   2.761094   5.106681   3.099830   0.000000
     6  Na   3.106158   3.008475   5.116179   4.387971   3.100354
     7  Na   2.761694   3.753535   4.849739   3.006346   3.008521
                    6          7
     6  Na   0.000000
     7  Na   2.761765   0.000000
 Stoichiometry    Na7(2)
 Framework group  C1[X(Na7)]
 Deg. of freedom    15
 Full point group                 C1      NOp   1
 Largest Abelian subgroup         C1      NOp   1
 Largest concise Abelian subgroup C1      NOp   1
                         Standard orientation:                         
 ---------------------------------------------------------------------
 Center     Atomic      Atomic             Coordinates (Angstroms)
 Number     Number       Type             X           Y           Z
 ---------------------------------------------------------------------
      1         11           0        0.782547   -1.762082    0.272244
      2         11           0        0.423195    0.688616   -1.426010
      3         11           0        2.998858   -0.023056   -0.342365
      4         11           0        0.919675    1.178956    1.246083
      5         11           0       -1.778695    1.771349   -0.159909
      6         11           0       -1.924487   -1.169406   -1.130937
      7         11           0       -1.421093   -0.684376    1.540895
 ---------------------------------------------------------------------
 Rotational constants (GHZ):           1.2634028           0.8149666           0.7461783
 Leave Link  202 at Mon Nov 13 17:05:53 2023, MaxMem=  1879048192 cpu:               0.0 elap:               0.0
 (Enter /home/sekinelabo/g16/l301.exe)
 Standard basis: 6-311+G(d) (5D, 7F)
 Ernie: Thresh=  0.10000D-02 Tol=  0.10000D-05 Strict=F.
 There are   217 symmetry adapted cartesian basis functions of A   symmetry.
 There are   210 symmetry adapted basis functions of A   symmetry.
   210 basis functions,   350 primitive gaussians,   217 cartesian basis functions
    39 alpha electrons       38 beta electrons
       nuclear repulsion energy       411.6590875989 Hartrees.
 IExCor=  402 DFT=T Ex+Corr=B3LYP ExCW=0 ScaHFX=  0.200000
 ScaDFX=  0.800000  0.720000  1.000000  0.810000 ScalE2=  1.000000  1.000000
 IRadAn=      5 IRanWt=     -1 IRanGd=            0 ICorTp=0 IEmpDi=  4
 NAtoms=    7 NActive=    7 NUniq=    7 SFac= 1.00D+00 NAtFMM=   60 NAOKFM=F Big=F
 Integral buffers will be    131072 words long.
 Raffenetti 2 integral format.
 Two-electron integral symmetry is turned on.
 Leave Link  301 at Mon Nov 13 17:05:53 2023, MaxMem=  1879048192 cpu:               0.6 elap:               0.0
 (Enter /home/sekinelabo/g16/l302.exe)
 NPDir=0 NMtPBC=     1 NCelOv=     1 NCel=       1 NClECP=     1 NCelD=      1
         NCelK=      1 NCelE2=     1 NClLst=     1 CellRange=     0.0.
 One-electron integrals computed using PRISM.
 One-electron integral symmetry used in STVInt
 NBasis=   210 RedAO= T EigKep=  1.85D-06  NBF=   210
 NBsUse=   210 1.00D-06 EigRej= -1.00D+00 NBFU=   210
 Precomputing XC quadrature grid using
 IXCGrd= 4 IRadAn=           5 IRanWt=          -1 IRanGd=           0 AccXCQ= 0.00D+00.
 Generated NRdTot=       0 NPtTot=           0 NUsed=           0 NTot=          32
 NSgBfM=   211   211   211   211   211 MxSgAt=     7 MxSgA2=     7.
 Leave Link  302 at Mon Nov 13 17:05:53 2023, MaxMem=  1879048192 cpu:               2.1 elap:               0.1
 (Enter /home/sekinelabo/g16/l303.exe)
 DipDrv:  MaxL=1.
 Leave Link  303 at Mon Nov 13 17:05:53 2023, MaxMem=  1879048192 cpu:               0.6 elap:               0.0
 (Enter /home/sekinelabo/g16/l401.exe)
 ExpMin= 7.60D-03 ExpMax= 3.62D+04 ExpMxC= 1.21D+03 IAcc=3 IRadAn=         5 AccDes= 0.00D+00
 Harris functional with IExCor=  402 and IRadAn=       5 diagonalized for initial guess.
 HarFok:  IExCor=  402 AccDes= 0.00D+00 IRadAn=         5 IDoV= 1 UseB2=F ITyADJ=14
 ICtDFT=  3500011 ScaDFX=  1.000000  1.000000  1.000000  1.000000
 FoFCou: FMM=F IPFlag=           0 FMFlag=      100000 FMFlg1=           0
         NFxFlg=           0 DoJE=T BraDBF=F KetDBF=T FulRan=T
         wScrn=  0.000000 ICntrl=       500 IOpCl=  0 I1Cent=   200000004 NGrid=           0
         NMat0=    1 NMatS0=      1 NMatT0=    0 NMatD0=    1 NMtDS0=    0 NMtDT0=    0
 Petite list used in FoFCou.
 Harris En= -1135.85583535423    
 JPrj=0 DoOrth=F DoCkMO=F.
 Initial guess <Sx>= 0.0000 <Sy>= 0.0000 <Sz>= 0.5000 <S**2>= 0.7500 S= 0.5000
 Leave Link  401 at Mon Nov 13 17:05:54 2023, MaxMem=  1879048192 cpu:               4.8 elap:               0.3
 (Enter /home/sekinelabo/g16/l502.exe)
 Keep R1 and R2 ints in memory in canonical form, NReq=507620388.
 FoFCou: FMM=F IPFlag=           0 FMFlag=           0 FMFlg1=           0
         NFxFlg=           0 DoJE=F BraDBF=F KetDBF=F FulRan=T
         wScrn=  0.000000 ICntrl=       600 IOpCl=  0 I1Cent=           0 NGrid=           0
         NMat0=    1 NMatS0=  22155 NMatT0=    0 NMatD0=    1 NMtDS0=    0 NMtDT0=    0
 Symmetry not used in FoFCou.
 Two-electron integral symmetry not used.
 UHF open shell SCF:
 Using DIIS extrapolation, IDIIS=  1040.
 NGot=  1879048192 LenX=  1388082348 LenY=  1388034818
 Requested convergence on RMS density matrix=1.00D-08 within 128 cycles.
 Requested convergence on MAX density matrix=1.00D-06.
 Requested convergence on             energy=1.00D-06.
 No special actions if energy rises.

 Cycle   1  Pass 1  IDiag  1:
 E= -1136.03462010257    
 DIIS: error= 1.57D-02 at cycle   1 NSaved=   1.
 NSaved= 1 IEnMin= 1 EnMin= -1136.03462010257     IErMin= 1 ErrMin= 1.57D-02
 ErrMax= 1.57D-02  0.00D+00 EMaxC= 1.00D-01 BMatC= 2.12D-01 BMatP= 2.12D-01
 IDIUse=3 WtCom= 8.43D-01 WtEn= 1.57D-01
 Coeff-Com:  0.100D+01
 Coeff-En:   0.100D+01
 Coeff:      0.100D+01
 Gap=     0.060 Goal=   None    Shift=    0.000
 Gap=     0.033 Goal=   None    Shift=    0.000
 GapD=    0.033 DampG=0.250 DampE=0.500 DampFc=0.2500 IDamp=-1.
 Damping current iteration by 2.50D-01
 RMSDP=8.85D-02 MaxDP=8.43D+00              OVMax= 2.67D-01

 Cycle   2  Pass 1  IDiag  1:
 E= -1136.05136528174     Delta-E=       -0.016745179171 Rises=F Damp=T
 DIIS: error= 8.70D-03 at cycle   2 NSaved=   2.
 NSaved= 2 IEnMin= 2 EnMin= -1136.05136528174     IErMin= 2 ErrMin= 8.70D-03
 ErrMax= 8.70D-03  0.00D+00 EMaxC= 1.00D-01 BMatC= 7.97D-02 BMatP= 2.12D-01
 IDIUse=3 WtCom= 9.13D-01 WtEn= 8.70D-02
 Coeff-Com: -0.126D+01 0.226D+01
 Coeff-En:   0.000D+00 0.100D+01
 Coeff:     -0.115D+01 0.215D+01
 Gap=     0.065 Goal=   None    Shift=    0.000
 Gap=     0.036 Goal=   None    Shift=    0.000
 RMSDP=3.91D-02 MaxDP=3.98D+00 DE=-1.67D-02 OVMax= 1.78D-01

 Cycle   3  Pass 1  IDiag  1:
 E= -1136.07946944374     Delta-E=       -0.028104162002 Rises=F Damp=F
 DIIS: error= 3.92D-03 at cycle   3 NSaved=   3.
 NSaved= 3 IEnMin= 3 EnMin= -1136.07946944374     IErMin= 3 ErrMin= 3.92D-03
 ErrMax= 3.92D-03  0.00D+00 EMaxC= 1.00D-01 BMatC= 4.30D-03 BMatP= 7.97D-02
 IDIUse=3 WtCom= 9.61D-01 WtEn= 3.92D-02
 Coeff-Com: -0.265D+00 0.484D+00 0.781D+00
 Coeff-En:   0.000D+00 0.000D+00 0.100D+01
 Coeff:     -0.255D+00 0.465D+00 0.790D+00
 Gap=     0.061 Goal=   None    Shift=    0.000
 Gap=     0.035 Goal=   None    Shift=    0.000
 RMSDP=1.71D-02 MaxDP=1.41D+00 DE=-2.81D-02 OVMax= 5.65D-02

 Cycle   4  Pass 1  IDiag  1:
 E= -1136.08008361011     Delta-E=       -0.000614166370 Rises=F Damp=F
 DIIS: error= 3.23D-03 at cycle   4 NSaved=   4.
 NSaved= 4 IEnMin= 4 EnMin= -1136.08008361011     IErMin= 4 ErrMin= 3.23D-03
 ErrMax= 3.23D-03  0.00D+00 EMaxC= 1.00D-01 BMatC= 2.91D-03 BMatP= 4.30D-03
 IDIUse=3 WtCom= 9.68D-01 WtEn= 3.23D-02
 Coeff-Com:  0.244D-02-0.173D-02 0.451D+00 0.549D+00
 Coeff-En:   0.000D+00 0.000D+00 0.432D+00 0.568D+00
 Coeff:      0.236D-02-0.167D-02 0.450D+00 0.549D+00
 Gap=     0.063 Goal=   None    Shift=    0.000
 Gap=     0.036 Goal=   None    Shift=    0.000
 RMSDP=5.97D-03 MaxDP=4.43D-01 DE=-6.14D-04 OVMax= 3.45D-02

 Cycle   5  Pass 1  IDiag  1:
 E= -1136.08167424682     Delta-E=       -0.001590636704 Rises=F Damp=F
 DIIS: error= 7.32D-04 at cycle   5 NSaved=   5.
 NSaved= 5 IEnMin= 5 EnMin= -1136.08167424682     IErMin= 5 ErrMin= 7.32D-04
 ErrMax= 7.32D-04  0.00D+00 EMaxC= 1.00D-01 BMatC= 1.09D-04 BMatP= 2.91D-03
 IDIUse=3 WtCom= 9.93D-01 WtEn= 7.32D-03
 Coeff-Com:  0.188D-02-0.268D-02 0.282D+00 0.352D+00 0.366D+00
 Coeff-En:   0.000D+00 0.000D+00 0.000D+00 0.000D+00 0.100D+01
 Coeff:      0.186D-02-0.266D-02 0.280D+00 0.350D+00 0.371D+00
 Gap=     0.063 Goal=   None    Shift=    0.000
 Gap=     0.036 Goal=   None    Shift=    0.000
 RMSDP=7.36D-04 MaxDP=3.54D-02 DE=-1.59D-03 OVMax= 1.03D-02

 Cycle   6  Pass 1  IDiag  1:
 E= -1136.08178673950     Delta-E=       -0.000112492684 Rises=F Damp=F
 DIIS: error= 1.33D-04 at cycle   6 NSaved=   6.
 NSaved= 6 IEnMin= 6 EnMin= -1136.08178673950     IErMin= 6 ErrMin= 1.33D-04
 ErrMax= 1.33D-04  0.00D+00 EMaxC= 1.00D-01 BMatC= 3.09D-06 BMatP= 1.09D-04
 IDIUse=3 WtCom= 9.99D-01 WtEn= 1.33D-03
 Coeff-Com: -0.194D-02 0.218D-02-0.325D-01-0.426D-01 0.979D-01 0.977D+00
 Coeff-En:   0.000D+00 0.000D+00 0.000D+00 0.000D+00 0.000D+00 0.100D+01
 Coeff:     -0.194D-02 0.218D-02-0.324D-01-0.425D-01 0.978D-01 0.977D+00
 Gap=     0.063 Goal=   None    Shift=    0.000
 Gap=     0.036 Goal=   None    Shift=    0.000
 RMSDP=4.15D-04 MaxDP=3.49D-02 DE=-1.12D-04 OVMax= 3.01D-03

 Cycle   7  Pass 1  IDiag  1:
 E= -1136.08179156215     Delta-E=       -0.000004822645 Rises=F Damp=F
 DIIS: error= 5.63D-05 at cycle   7 NSaved=   7.
 NSaved= 7 IEnMin= 7 EnMin= -1136.08179156215     IErMin= 7 ErrMin= 5.63D-05
 ErrMax= 5.63D-05  0.00D+00 EMaxC= 1.00D-01 BMatC= 8.20D-07 BMatP= 3.09D-06
 IDIUse=1 WtCom= 1.00D+00 WtEn= 0.00D+00
 Coeff-Com: -0.104D-02 0.116D-02-0.361D-01-0.455D-01 0.278D-01 0.495D+00
 Coeff-Com:  0.559D+00
 Coeff:     -0.104D-02 0.116D-02-0.361D-01-0.455D-01 0.278D-01 0.495D+00
 Coeff:      0.559D+00
 Gap=     0.063 Goal=   None    Shift=    0.000
 Gap=     0.036 Goal=   None    Shift=    0.000
 RMSDP=1.33D-04 MaxDP=8.42D-03 DE=-4.82D-06 OVMax= 1.64D-03

 Cycle   8  Pass 1  IDiag  1:
 E= -1136.08179262484     Delta-E=       -0.000001062692 Rises=F Damp=F
 DIIS: error= 3.23D-05 at cycle   8 NSaved=   8.
 NSaved= 8 IEnMin= 8 EnMin= -1136.08179262484     IErMin= 8 ErrMin= 3.23D-05
 ErrMax= 3.23D-05  0.00D+00 EMaxC= 1.00D-01 BMatC= 2.32D-07 BMatP= 8.20D-07
 IDIUse=1 WtCom= 1.00D+00 WtEn= 0.00D+00
 Coeff-Com:  0.535D-03-0.675D-03-0.550D-02-0.521D-02-0.283D-01-0.188D+00
 Coeff-Com:  0.330D+00 0.897D+00
 Coeff:      0.535D-03-0.675D-03-0.550D-02-0.521D-02-0.283D-01-0.188D+00
 Coeff:      0.330D+00 0.897D+00
 Gap=     0.063 Goal=   None    Shift=    0.000
 Gap=     0.036 Goal=   None    Shift=    0.000
 RMSDP=1.18D-04 MaxDP=7.04D-03 DE=-1.06D-06 OVMax= 1.77D-03

 Cycle   9  Pass 1  IDiag  1:
 E= -1136.08179327732     Delta-E=       -0.000000652484 Rises=F Damp=F
 DIIS: error= 8.62D-06 at cycle   9 NSaved=   9.
 NSaved= 9 IEnMin= 9 EnMin= -1136.08179327732     IErMin= 9 ErrMin= 8.62D-06
 ErrMax= 8.62D-06  0.00D+00 EMaxC= 1.00D-01 BMatC= 2.17D-08 BMatP= 2.32D-07
 IDIUse=1 WtCom= 1.00D+00 WtEn= 0.00D+00
 Coeff-Com:  0.282D-03-0.349D-03 0.323D-02 0.435D-02-0.670D-02-0.634D-01
 Coeff-Com: -0.389D-01 0.611D-01 0.104D+01
 Coeff:      0.282D-03-0.349D-03 0.323D-02 0.435D-02-0.670D-02-0.634D-01
 Coeff:     -0.389D-01 0.611D-01 0.104D+01
 Gap=     0.063 Goal=   None    Shift=    0.000
 Gap=     0.036 Goal=   None    Shift=    0.000
 RMSDP=6.11D-05 MaxDP=3.78D-03 DE=-6.52D-07 OVMax= 1.16D-03

 Cycle  10  Pass 1  IDiag  1:
 E= -1136.08179343330     Delta-E=       -0.000000155980 Rises=F Damp=F
 DIIS: error= 6.58D-06 at cycle  10 NSaved=  10.
 NSaved=10 IEnMin=10 EnMin= -1136.08179343330     IErMin=10 ErrMin= 6.58D-06
 ErrMax= 6.58D-06  0.00D+00 EMaxC= 1.00D-01 BMatC= 1.19D-08 BMatP= 2.17D-08
 IDIUse=1 WtCom= 1.00D+00 WtEn= 0.00D+00
 Coeff-Com: -0.232D-04 0.416D-04 0.322D-02 0.358D-02 0.320D-02 0.121D-01
 Coeff-Com: -0.101D+00-0.194D+00 0.471D+00 0.802D+00
 Coeff:     -0.232D-04 0.416D-04 0.322D-02 0.358D-02 0.320D-02 0.121D-01
 Coeff:     -0.101D+00-0.194D+00 0.471D+00 0.802D+00
 Gap=     0.063 Goal=   None    Shift=    0.000
 Gap=     0.036 Goal=   None    Shift=    0.000
 RMSDP=4.12D-05 MaxDP=2.48D-03 DE=-1.56D-07 OVMax= 8.61D-04

 Cycle  11  Pass 1  IDiag  1:
 E= -1136.08179350491     Delta-E=       -0.000000071610 Rises=F Damp=F
 DIIS: error= 5.00D-06 at cycle  11 NSaved=  11.
 NSaved=11 IEnMin=11 EnMin= -1136.08179350491     IErMin=11 ErrMin= 5.00D-06
 ErrMax= 5.00D-06  0.00D+00 EMaxC= 1.00D-01 BMatC= 5.60D-09 BMatP= 1.19D-08
 IDIUse=1 WtCom= 1.00D+00 WtEn= 0.00D+00
 Coeff-Com: -0.156D-03 0.205D-03 0.776D-03 0.509D-03 0.479D-02 0.317D-01
 Coeff-Com: -0.451D-01-0.141D+00-0.164D+00 0.432D+00 0.881D+00
 Coeff:     -0.156D-03 0.205D-03 0.776D-03 0.509D-03 0.479D-02 0.317D-01
 Coeff:     -0.451D-01-0.141D+00-0.164D+00 0.432D+00 0.881D+00
 Gap=     0.063 Goal=   None    Shift=    0.000
 Gap=     0.036 Goal=   None    Shift=    0.000
 RMSDP=3.48D-05 MaxDP=2.17D-03 DE=-7.16D-08 OVMax= 8.36D-04

 Cycle  12  Pass 1  IDiag  1:
 E= -1136.08179354801     Delta-E=       -0.000000043097 Rises=F Damp=F
 DIIS: error= 3.47D-06 at cycle  12 NSaved=  12.
 NSaved=12 IEnMin=12 EnMin= -1136.08179354801     IErMin=12 ErrMin= 3.47D-06
 ErrMax= 3.47D-06  0.00D+00 EMaxC= 1.00D-01 BMatC= 2.52D-09 BMatP= 5.60D-09
 IDIUse=1 WtCom= 1.00D+00 WtEn= 0.00D+00
 Coeff-Com: -0.839D-04 0.103D-03-0.875D-03-0.119D-02 0.188D-02 0.161D-01
 Coeff-Com:  0.130D-01-0.810D-02-0.292D+00-0.883D-01 0.539D+00 0.821D+00
 Coeff:     -0.839D-04 0.103D-03-0.875D-03-0.119D-02 0.188D-02 0.161D-01
 Coeff:      0.130D-01-0.810D-02-0.292D+00-0.883D-01 0.539D+00 0.821D+00
 Gap=     0.063 Goal=   None    Shift=    0.000
 Gap=     0.036 Goal=   None    Shift=    0.000
 RMSDP=2.14D-05 MaxDP=1.31D-03 DE=-4.31D-08 OVMax= 6.44D-04

 Cycle  13  Pass 1  IDiag  1:
 E= -1136.08179356765     Delta-E=       -0.000000019643 Rises=F Damp=F
 DIIS: error= 2.28D-06 at cycle  13 NSaved=  13.
 NSaved=13 IEnMin=13 EnMin= -1136.08179356765     IErMin=13 ErrMin= 2.28D-06
 ErrMax= 2.28D-06  0.00D+00 EMaxC= 1.00D-01 BMatC= 5.85D-10 BMatP= 2.52D-09
 IDIUse=1 WtCom= 1.00D+00 WtEn= 0.00D+00
 Coeff-Com:  0.115D-03-0.149D-03-0.943D-04 0.771D-04-0.269D-02-0.195D-01
 Coeff-Com:  0.198D-01 0.759D-01 0.900D-01-0.125D+00-0.437D+00-0.278D+00
 Coeff-Com:  0.168D+01
 Coeff:      0.115D-03-0.149D-03-0.943D-04 0.771D-04-0.269D-02-0.195D-01
 Coeff:      0.198D-01 0.759D-01 0.900D-01-0.125D+00-0.437D+00-0.278D+00
 Coeff:      0.168D+01
 Gap=     0.063 Goal=   None    Shift=    0.000
 Gap=     0.036 Goal=   None    Shift=    0.000
 RMSDP=1.71D-05 MaxDP=1.72D-03 DE=-1.96D-08 OVMax= 6.27D-04

 Cycle  14  Pass 1  IDiag  1:
 E= -1136.08179357848     Delta-E=       -0.000000010833 Rises=F Damp=F
 DIIS: error= 1.17D-06 at cycle  14 NSaved=  14.
 NSaved=14 IEnMin=14 EnMin= -1136.08179357848     IErMin=14 ErrMin= 1.17D-06
 ErrMax= 1.17D-06  0.00D+00 EMaxC= 1.00D-01 BMatC= 1.63D-10 BMatP= 5.85D-10
 IDIUse=1 WtCom= 1.00D+00 WtEn= 0.00D+00
 Coeff-Com: -0.110D-04 0.169D-04 0.127D-03 0.179D-03 0.172D-03-0.246D-03
 Coeff-Com: -0.625D-02-0.122D-01 0.584D-01 0.486D-01-0.434D-01-0.160D+00
 Coeff-Com: -0.455D+00 0.157D+01
 Coeff:     -0.110D-04 0.169D-04 0.127D-03 0.179D-03 0.172D-03-0.246D-03
 Coeff:     -0.625D-02-0.122D-01 0.584D-01 0.486D-01-0.434D-01-0.160D+00
 Coeff:     -0.455D+00 0.157D+01
 Gap=     0.063 Goal=   None    Shift=    0.000
 Gap=     0.036 Goal=   None    Shift=    0.000
 RMSDP=9.43D-06 MaxDP=9.46D-04 DE=-1.08D-08 OVMax= 3.77D-04

 Cycle  15  Pass 1  IDiag  1:
 E= -1136.08179358178     Delta-E=       -0.000000003299 Rises=F Damp=F
 DIIS: error= 5.06D-07 at cycle  15 NSaved=  15.
 NSaved=15 IEnMin=15 EnMin= -1136.08179358178     IErMin=15 ErrMin= 5.06D-07
 ErrMax= 5.06D-07  0.00D+00 EMaxC= 1.00D-01 BMatC= 4.22D-11 BMatP= 1.63D-10
 IDIUse=1 WtCom= 1.00D+00 WtEn= 0.00D+00
 Coeff-Com: -0.299D-04 0.385D-04 0.272D-04-0.658D-04 0.714D-03 0.568D-02
 Coeff-Com: -0.371D-02-0.191D-01-0.485D-01 0.249D-01 0.154D+00 0.133D+00
 Coeff-Com: -0.416D+00-0.424D+00 0.159D+01
 Coeff:     -0.299D-04 0.385D-04 0.272D-04-0.658D-04 0.714D-03 0.568D-02
 Coeff:     -0.371D-02-0.191D-01-0.485D-01 0.249D-01 0.154D+00 0.133D+00
 Coeff:     -0.416D+00-0.424D+00 0.159D+01
 Gap=     0.063 Goal=   None    Shift=    0.000
 Gap=     0.036 Goal=   None    Shift=    0.000
 RMSDP=5.31D-06 MaxDP=4.34D-04 DE=-3.30D-09 OVMax= 2.13D-04

 Cycle  16  Pass 1  IDiag  1:
 E= -1136.08179358256     Delta-E=       -0.000000000778 Rises=F Damp=F
 DIIS: error= 1.36D-07 at cycle  16 NSaved=  16.
 NSaved=16 IEnMin=16 EnMin= -1136.08179358256     IErMin=16 ErrMin= 1.36D-07
 ErrMax= 1.36D-07  0.00D+00 EMaxC= 1.00D-01 BMatC= 5.40D-12 BMatP= 4.22D-11
 IDIUse=1 WtCom= 1.00D+00 WtEn= 0.00D+00
 Coeff-Com:  0.443D-05-0.645D-05-0.606D-05-0.140D-04-0.623D-04-0.114D-03
 Coeff-Com:  0.105D-02 0.309D-02-0.123D-01-0.870D-02 0.639D-02 0.327D-01
 Coeff-Com:  0.924D-01-0.290D+00-0.782D-01 0.125D+01
 Coeff:      0.443D-05-0.645D-05-0.606D-05-0.140D-04-0.623D-04-0.114D-03
 Coeff:      0.105D-02 0.309D-02-0.123D-01-0.870D-02 0.639D-02 0.327D-01
 Coeff:      0.924D-01-0.290D+00-0.782D-01 0.125D+01
 Gap=     0.063 Goal=   None    Shift=    0.000
 Gap=     0.036 Goal=   None    Shift=    0.000
 RMSDP=1.63D-06 MaxDP=9.03D-05 DE=-7.78D-10 OVMax= 6.37D-05

 Cycle  17  Pass 1  IDiag  1:
 E= -1136.08179358265     Delta-E=       -0.000000000087 Rises=F Damp=F
 DIIS: error= 4.42D-08 at cycle  17 NSaved=  17.
 NSaved=17 IEnMin=17 EnMin= -1136.08179358265     IErMin=17 ErrMin= 4.42D-08
 ErrMax= 4.42D-08  0.00D+00 EMaxC= 1.00D-01 BMatC= 9.90D-13 BMatP= 5.40D-12
 IDIUse=1 WtCom= 1.00D+00 WtEn= 0.00D+00
 Coeff-Com:  0.393D-05-0.531D-05-0.760D-05 0.168D-05-0.705D-04-0.522D-03
 Coeff-Com:  0.653D-03 0.239D-02 0.148D-02-0.379D-02-0.146D-01-0.298D-02
 Coeff-Com:  0.665D-01-0.396D-01-0.189D+00 0.374D+00 0.804D+00
 Coeff:      0.393D-05-0.531D-05-0.760D-05 0.168D-05-0.705D-04-0.522D-03
 Coeff:      0.653D-03 0.239D-02 0.148D-02-0.379D-02-0.146D-01-0.298D-02
 Coeff:      0.665D-01-0.396D-01-0.189D+00 0.374D+00 0.804D+00
 Gap=     0.063 Goal=   None    Shift=    0.000
 Gap=     0.036 Goal=   None    Shift=    0.000
 RMSDP=3.56D-07 MaxDP=2.13D-05 DE=-8.69D-11 OVMax= 8.86D-06

 Cycle  18  Pass 1  IDiag  1:
 E= -1136.08179358264     Delta-E=        0.000000000011 Rises=F Damp=F
 DIIS: error= 1.53D-08 at cycle  18 NSaved=  18.
 NSaved=18 IEnMin=17 EnMin= -1136.08179358265     IErMin=18 ErrMin= 1.53D-08
 ErrMax= 1.53D-08  0.00D+00 EMaxC= 1.00D-01 BMatC= 1.27D-13 BMatP= 9.90D-13
 IDIUse=1 WtCom= 1.00D+00 WtEn= 0.00D+00
 Coeff-Com: -0.243D-06 0.452D-06-0.282D-05 0.184D-05-0.435D-05-0.137D-03
 Coeff-Com: -0.316D-04 0.583D-04 0.293D-02 0.941D-03-0.478D-02-0.822D-02
 Coeff-Com: -0.654D-02 0.580D-01-0.219D-01-0.213D+00 0.125D+00 0.107D+01
 Coeff:     -0.243D-06 0.452D-06-0.282D-05 0.184D-05-0.435D-05-0.137D-03
 Coeff:     -0.316D-04 0.583D-04 0.293D-02 0.941D-03-0.478D-02-0.822D-02
 Coeff:     -0.654D-02 0.580D-01-0.219D-01-0.213D+00 0.125D+00 0.107D+01
 Gap=     0.063 Goal=   None    Shift=    0.000
 Gap=     0.036 Goal=   None    Shift=    0.000
 RMSDP=2.04D-07 MaxDP=1.19D-05 DE= 1.11D-11 OVMax= 4.11D-06

 Cycle  19  Pass 1  IDiag  1:
 E= -1136.08179358264     Delta-E=       -0.000000000008 Rises=F Damp=F
 DIIS: error= 5.05D-09 at cycle  19 NSaved=  19.
 NSaved=19 IEnMin=17 EnMin= -1136.08179358265     IErMin=19 ErrMin= 5.05D-09
 ErrMax= 5.05D-09  0.00D+00 EMaxC= 1.00D-01 BMatC= 7.20D-15 BMatP= 1.27D-13
 IDIUse=1 WtCom= 1.00D+00 WtEn= 0.00D+00
 Coeff-Com: -0.288D-06 0.382D-06 0.126D-05-0.108D-06 0.434D-05 0.531D-04
 Coeff-Com: -0.682D-04-0.184D-03-0.382D-03 0.345D-03 0.154D-02 0.710D-03
 Coeff-Com: -0.475D-02-0.907D-03 0.175D-01-0.216D-01-0.550D-01-0.904D-01
 Coeff-Com:  0.115D+01
 Coeff:     -0.288D-06 0.382D-06 0.126D-05-0.108D-06 0.434D-05 0.531D-04
 Coeff:     -0.682D-04-0.184D-03-0.382D-03 0.345D-03 0.154D-02 0.710D-03
 Coeff:     -0.475D-02-0.907D-03 0.175D-01-0.216D-01-0.550D-01-0.904D-01
 Coeff:      0.115D+01
 Gap=     0.063 Goal=   None    Shift=    0.000
 Gap=     0.036 Goal=   None    Shift=    0.000
 RMSDP=4.84D-08 MaxDP=3.63D-06 DE=-8.41D-12 OVMax= 5.15D-07

 Cycle  20  Pass 1  IDiag  1:
 E= -1136.08179358264     Delta-E=        0.000000000004 Rises=F Damp=F
 DIIS: error= 1.58D-09 at cycle  20 NSaved=  20.
 NSaved=20 IEnMin=17 EnMin= -1136.08179358265     IErMin=20 ErrMin= 1.58D-09
 ErrMax= 1.58D-09  0.00D+00 EMaxC= 1.00D-01 BMatC= 7.46D-16 BMatP= 7.20D-15
 IDIUse=1 WtCom= 1.00D+00 WtEn= 0.00D+00
 Large coefficients: NSaved= 20 BigCof=    0.00 CofMax=   10.00 Det=-2.07D-15
 Inversion failed.  Reducing to 19 matrices.
 Large coefficients: NSaved= 19 BigCof=    0.00 CofMax=   10.00 Det=-2.25D-15
 Inversion failed.  Reducing to 18 matrices.
 Large coefficients: NSaved= 18 BigCof=    0.00 CofMax=   10.00 Det=-2.27D-15
 Inversion failed.  Reducing to 17 matrices.
 Large coefficients: NSaved= 17 BigCof=    0.00 CofMax=   10.00 Det=-2.35D-15
 Inversion failed.  Reducing to 16 matrices.
 Large coefficients: NSaved= 16 BigCof=    0.00 CofMax=   10.00 Det=-2.82D-15
 Inversion failed.  Reducing to 15 matrices.
 Coeff-Com: -0.346D-05 0.118D-04 0.139D-04-0.232D-05-0.792D-04-0.301D-04
 Coeff-Com:  0.176D-03-0.706D-05-0.231D-03-0.155D-02 0.591D-02-0.196D-02
 Coeff-Com: -0.199D-01-0.731D-01 0.109D+01
 Coeff:     -0.346D-05 0.118D-04 0.139D-04-0.232D-05-0.792D-04-0.301D-04
 Coeff:      0.176D-03-0.706D-05-0.231D-03-0.155D-02 0.591D-02-0.196D-02
 Coeff:     -0.199D-01-0.731D-01 0.109D+01
 Gap=     0.063 Goal=   None    Shift=    0.000
 Gap=     0.036 Goal=   None    Shift=    0.000
 RMSDP=2.22D-08 MaxDP=2.09D-06 DE= 4.09D-12 OVMax= 2.17D-07

 Cycle  21  Pass 1  IDiag  1:
 E= -1136.08179358265     Delta-E=       -0.000000000007 Rises=F Damp=F
 DIIS: error= 9.27D-10 at cycle  21 NSaved=  16.
 NSaved=16 IEnMin=12 EnMin= -1136.08179358265     IErMin=16 ErrMin= 9.27D-10
 ErrMax= 9.27D-10  0.00D+00 EMaxC= 1.00D-01 BMatC= 2.87D-16 BMatP= 7.46D-16
 IDIUse=1 WtCom= 1.00D+00 WtEn= 0.00D+00
 Large coefficients: NSaved= 16 BigCof=    0.00 CofMax=   10.00 Det=-6.42D-16
 Inversion failed.  Reducing to 15 matrices.
 Coeff-Com:  0.544D-05 0.120D-04-0.728D-04-0.569D-04 0.868D-04 0.236D-03
 Coeff-Com:  0.387D-03-0.168D-02-0.418D-03 0.806D-02 0.141D-02-0.232D-01
 Coeff-Com: -0.134D+00 0.342D+00 0.808D+00
 Coeff:      0.544D-05 0.120D-04-0.728D-04-0.569D-04 0.868D-04 0.236D-03
 Coeff:      0.387D-03-0.168D-02-0.418D-03 0.806D-02 0.141D-02-0.232D-01
 Coeff:     -0.134D+00 0.342D+00 0.808D+00
 Gap=     0.063 Goal=   None    Shift=    0.000
 Gap=     0.036 Goal=   None    Shift=    0.000
 RMSDP=1.01D-08 MaxDP=1.15D-06 DE=-6.82D-12 OVMax= 5.07D-08

 Cycle  22  Pass 1  IDiag  1:
 E= -1136.08179358265     Delta-E=        0.000000000000 Rises=F Damp=F
 DIIS: error= 3.46D-10 at cycle  22 NSaved=  16.
 NSaved=16 IEnMin=11 EnMin= -1136.08179358265     IErMin=16 ErrMin= 3.46D-10
 ErrMax= 3.46D-10  0.00D+00 EMaxC= 1.00D-01 BMatC= 3.51D-17 BMatP= 2.87D-16
 IDIUse=1 WtCom= 1.00D+00 WtEn= 0.00D+00
 Large coefficients: NSaved= 16 BigCof=    0.00 CofMax=   10.00 Det=-1.07D-16
 Inversion failed.  Reducing to 15 matrices.
 Coeff-Com:  0.142D-06 0.160D-05 0.125D-04-0.209D-04-0.430D-04 0.843D-04
 Coeff-Com:  0.356D-04-0.123D-04-0.707D-03 0.125D-02 0.427D-02 0.170D-02
 Coeff-Com: -0.181D+00-0.479D-02 0.118D+01
 Coeff:      0.142D-06 0.160D-05 0.125D-04-0.209D-04-0.430D-04 0.843D-04
 Coeff:      0.356D-04-0.123D-04-0.707D-03 0.125D-02 0.427D-02 0.170D-02
 Coeff:     -0.181D+00-0.479D-02 0.118D+01
 Gap=     0.063 Goal=   None    Shift=    0.000
 Gap=     0.036 Goal=   None    Shift=    0.000
 RMSDP=8.29D-09 MaxDP=7.44D-07 DE= 0.00D+00 OVMax= 2.35D-08

 SCF Done:  E(UB3LYP) =  -1136.08179358     A.U. after   22 cycles
            NFock= 22  Conv=0.83D-08     -V/T= 2.0023
 <Sx>= 0.0000 <Sy>= 0.0000 <Sz>= 0.5000 <S**2>= 0.7606 S= 0.5053
 <L.S>= 0.000000000000E+00
 KE= 1.133515215126D+03 PE=-3.552905461013D+03 EE= 8.716493647057D+02
 Annihilation of the first spin contaminant:
 S**2 before annihilation     0.7606,   after     0.7501
 Leave Link  502 at Mon Nov 13 17:06:12 2023, MaxMem=  1879048192 cpu:             214.8 elap:              18.3
 (Enter /home/sekinelabo/g16/l601.exe)
 Copying SCF densities to generalized density rwf, IOpCl= 1 IROHF=0.

 **********************************************************************

            Population analysis using the SCF Density.

 **********************************************************************

 Orbital symmetries:
 Alpha Orbitals:
       Occupied  (A) (A) (A) (A) (A) (A) (A) (A) (A) (A) (A) (A)
                 (A) (A) (A) (A) (A) (A) (A) (A) (A) (A) (A) (A)
                 (A) (A) (A) (A) (A) (A) (A) (A) (A) (A) (A) (A)
                 (A) (A) (A)
       Virtual   (A) (A) (A) (A) (A) (A) (A) (A) (A) (A) (A) (A)
                 (A) (A) (A) (A) (A) (A) (A) (A) (A) (A) (A) (A)
                 (A) (A) (A) (A) (A) (A) (A) (A) (A) (A) (A) (A)
                 (A) (A) (A) (A) (A) (A) (A) (A) (A) (A) (A) (A)
                 (A) (A) (A) (A) (A) (A) (A) (A) (A) (A) (A) (A)
                 (A) (A) (A) (A) (A) (A) (A) (A) (A) (A) (A) (A)
                 (A) (A) (A) (A) (A) (A) (A) (A) (A) (A) (A) (A)
                 (A) (A) (A) (A) (A) (A) (A) (A) (A) (A) (A) (A)
                 (A) (A) (A) (A) (A) (A) (A) (A) (A) (A) (A) (A)
                 (A) (A) (A) (A) (A) (A) (A) (A) (A) (A) (A) (A)
                 (A) (A) (A) (A) (A) (A) (A) (A) (A) (A) (A) (A)
                 (A) (A) (A) (A) (A) (A) (A) (A) (A) (A) (A) (A)
                 (A) (A) (A) (A) (A) (A) (A) (A) (A) (A) (A) (A)
                 (A) (A) (A) (A) (A) (A) (A) (A) (A) (A) (A) (A)
                 (A) (A) (A)
 Beta  Orbitals:
       Occupied  (A) (A) (A) (A) (A) (A) (A) (A) (A) (A) (A) (A)
                 (A) (A) (A) (A) (A) (A) (A) (A) (A) (A) (A) (A)
                 (A) (A) (A) (A) (A) (A) (A) (A) (A) (A) (A) (A)
                 (A) (A)
       Virtual   (A) (A) (A) (A) (A) (A) (A) (A) (A) (A) (A) (A)
                 (A) (A) (A) (A) (A) (A) (A) (A) (A) (A) (A) (A)
                 (A) (A) (A) (A) (A) (A) (A) (A) (A) (A) (A) (A)
                 (A) (A) (A) (A) (A) (A) (A) (A) (A) (A) (A) (A)
                 (A) (A) (A) (A) (A) (A) (A) (A) (A) (A) (A) (A)
                 (A) (A) (A) (A) (A) (A) (A) (A) (A) (A) (A) (A)
                 (A) (A) (A) (A) (A) (A) (A) (A) (A) (A) (A) (A)
                 (A) (A) (A) (A) (A) (A) (A) (A) (A) (A) (A) (A)
                 (A) (A) (A) (A) (A) (A) (A) (A) (A) (A) (A) (A)
                 (A) (A) (A) (A) (A) (A) (A) (A) (A) (A) (A) (A)
                 (A) (A) (A) (A) (A) (A) (A) (A) (A) (A) (A) (A)
                 (A) (A) (A) (A) (A) (A) (A) (A) (A) (A) (A) (A)
                 (A) (A) (A) (A) (A) (A) (A) (A) (A) (A) (A) (A)
                 (A) (A) (A) (A) (A) (A) (A) (A) (A) (A) (A) (A)
                 (A) (A) (A) (A)
 The electronic state is 2-A.
 Alpha  occ. eigenvalues --  -38.44532 -38.44189 -38.43943 -38.43934 -38.43665
 Alpha  occ. eigenvalues --  -38.43128 -38.42831  -2.20563  -2.20379  -2.20236
 Alpha  occ. eigenvalues --   -2.20034  -2.19868  -2.19215  -2.19016  -1.14426
 Alpha  occ. eigenvalues --   -1.14254  -1.14235  -1.14198  -1.14150  -1.14085
 Alpha  occ. eigenvalues --   -1.13990  -1.13935  -1.13866  -1.13650  -1.13617
 Alpha  occ. eigenvalues --   -1.13591  -1.13516  -1.13455  -1.13418  -1.12897
 Alpha  occ. eigenvalues --   -1.12853  -1.12797  -1.12719  -1.12663  -1.12592
 Alpha  occ. eigenvalues --   -0.21533  -0.14344  -0.12605  -0.12018
 Alpha virt. eigenvalues --   -0.05735  -0.04170  -0.04042  -0.03558  -0.02836
 Alpha virt. eigenvalues --   -0.02784  -0.01365  -0.00412  -0.00265   0.00295
 Alpha virt. eigenvalues --    0.00702   0.00896   0.00971   0.01043   0.01087
 Alpha virt. eigenvalues --    0.01107   0.01287   0.01375   0.01402   0.01462
 Alpha virt. eigenvalues --    0.01523   0.01809   0.01920   0.01965   0.02027
 Alpha virt. eigenvalues --    0.02542   0.02795   0.02816   0.02953   0.02979
 Alpha virt. eigenvalues --    0.03015   0.03106   0.03160   0.03176   0.03292
 Alpha virt. eigenvalues --    0.03319   0.03407   0.03433   0.03851   0.03938
 Alpha virt. eigenvalues --    0.04085   0.05078   0.05133   0.05185   0.05329
 Alpha virt. eigenvalues --    0.05549   0.05562   0.05715   0.05790   0.06176
 Alpha virt. eigenvalues --    0.06484   0.06540   0.06905   0.07341   0.07403
 Alpha virt. eigenvalues --    0.07717   0.08503   0.08677   0.09088   0.09229
 Alpha virt. eigenvalues --    0.09544   0.10337   0.12040   0.12592   0.12666
 Alpha virt. eigenvalues --    0.12857   0.13017   0.13280   0.13719   0.13979
 Alpha virt. eigenvalues --    0.14320   0.14650   0.14733   0.15434   0.15582
 Alpha virt. eigenvalues --    0.16552   0.16950   0.17390   0.17686   0.18514
 Alpha virt. eigenvalues --    0.21808   0.24794   0.27054   0.28610   0.29325
 Alpha virt. eigenvalues --    0.30169   0.31588   0.31983   0.32610   0.34918
 Alpha virt. eigenvalues --    0.35489   0.35968   0.37738   0.38115   0.39003
 Alpha virt. eigenvalues --    0.40036   0.41300   0.42634   0.43751   0.44338
 Alpha virt. eigenvalues --    0.44520   0.44638   0.45125   0.46369   0.46879
 Alpha virt. eigenvalues --    0.47575   0.48282   0.48744   0.48869   0.49487
 Alpha virt. eigenvalues --    0.49798   0.49870   0.50016   0.50952   0.51354
 Alpha virt. eigenvalues --    0.53220   0.54677   0.55038   0.55845   0.56157
 Alpha virt. eigenvalues --    0.57814   0.60301   0.64744   0.65201   0.66434
 Alpha virt. eigenvalues --    0.67509   0.69502   0.71936   0.72921   0.76560
 Alpha virt. eigenvalues --    0.77230   0.77835   0.81418   0.83566   0.85063
 Alpha virt. eigenvalues --    0.86695   2.17114   2.21888   2.26278   2.28606
 Alpha virt. eigenvalues --    2.30098   2.32342   2.35538   4.40780   4.41136
 Alpha virt. eigenvalues --    4.41515   4.41702   4.41821   4.43859   4.46144
 Alpha virt. eigenvalues --    4.48338   4.48747   4.53766   4.57870   4.57978
 Alpha virt. eigenvalues --    4.65409   4.68779   4.71839   4.73689   4.76135
 Alpha virt. eigenvalues --    4.81274   4.84388   4.87324   4.93207  96.39439
 Alpha virt. eigenvalues --   96.47997  96.54277  96.57085  96.59396  96.62542
 Alpha virt. eigenvalues --   96.66229
  Beta  occ. eigenvalues --  -38.44526 -38.44126 -38.43905 -38.43870 -38.43612
  Beta  occ. eigenvalues --  -38.43116 -38.42810  -2.20554  -2.20269  -2.20124
  Beta  occ. eigenvalues --   -2.19968  -2.19777  -2.19199  -2.18987  -1.14406
  Beta  occ. eigenvalues --   -1.14209  -1.14199  -1.14187  -1.14054  -1.14015
  Beta  occ. eigenvalues --   -1.13908  -1.13851  -1.13792  -1.13588  -1.13571
  Beta  occ. eigenvalues --   -1.13524  -1.13446  -1.13388  -1.13330  -1.12887
  Beta  occ. eigenvalues --   -1.12817  -1.12767  -1.12703  -1.12613  -1.12548
  Beta  occ. eigenvalues --   -0.20654  -0.14102  -0.11778
  Beta virt. eigenvalues --   -0.08146  -0.05629  -0.04075  -0.03405  -0.03328
  Beta virt. eigenvalues --   -0.02054  -0.01752  -0.01299  -0.00320  -0.00061
  Beta virt. eigenvalues --    0.00336   0.00757   0.00905   0.01061   0.01087
  Beta virt. eigenvalues --    0.01141   0.01187   0.01327   0.01453   0.01511
  Beta virt. eigenvalues --    0.01575   0.01637   0.01878   0.01985   0.02042
  Beta virt. eigenvalues --    0.02127   0.02573   0.02790   0.02939   0.02964
  Beta virt. eigenvalues --    0.03012   0.03049   0.03108   0.03180   0.03249
  Beta virt. eigenvalues --    0.03384   0.03397   0.03505   0.03527   0.03963
  Beta virt. eigenvalues --    0.04201   0.04215   0.05174   0.05198   0.05286
  Beta virt. eigenvalues --    0.05463   0.05643   0.05714   0.05969   0.06043
  Beta virt. eigenvalues --    0.06303   0.06473   0.06585   0.06941   0.07449
  Beta virt. eigenvalues --    0.07548   0.07801   0.08547   0.08860   0.09174
  Beta virt. eigenvalues --    0.09370   0.09824   0.10840   0.12291   0.12720
  Beta virt. eigenvalues --    0.12824   0.13074   0.13151   0.13450   0.13833
  Beta virt. eigenvalues --    0.14202   0.14767   0.14846   0.15171   0.15636
  Beta virt. eigenvalues --    0.15791   0.16687   0.17137   0.17634   0.17927
  Beta virt. eigenvalues --    0.18824   0.22287   0.24855   0.27752   0.29187
  Beta virt. eigenvalues --    0.29459   0.30449   0.31880   0.32185   0.32935
  Beta virt. eigenvalues --    0.35216   0.35722   0.36586   0.37973   0.38353
  Beta virt. eigenvalues --    0.39273   0.40289   0.41631   0.42962   0.43857
  Beta virt. eigenvalues --    0.44556   0.44680   0.44743   0.45284   0.46630
  Beta virt. eigenvalues --    0.47008   0.47755   0.48435   0.48943   0.49077
  Beta virt. eigenvalues --    0.49664   0.49955   0.50009   0.50203   0.51055
  Beta virt. eigenvalues --    0.51788   0.53579   0.54776   0.55314   0.56091
  Beta virt. eigenvalues --    0.56348   0.58133   0.60622   0.64938   0.65402
  Beta virt. eigenvalues --    0.66620   0.67742   0.69783   0.72109   0.73096
  Beta virt. eigenvalues --    0.76849   0.77455   0.77988   0.81664   0.83782
  Beta virt. eigenvalues --    0.85173   0.86803   2.17177   2.21942   2.26443
  Beta virt. eigenvalues --    2.28735   2.30226   2.32503   2.35739   4.40874
  Beta virt. eigenvalues --    4.41213   4.41564   4.41784   4.41899   4.43924
  Beta virt. eigenvalues --    4.46185   4.48378   4.48811   4.53893   4.57934
  Beta virt. eigenvalues --    4.58059   4.65455   4.68869   4.71893   4.73775
  Beta virt. eigenvalues --    4.76196   4.81328   4.84474   4.87360   4.93251
  Beta virt. eigenvalues --   96.39472  96.48013  96.54323  96.57125  96.59453
  Beta virt. eigenvalues --   96.62598  96.66305
          Condensed to atoms (all electrons):
               1          2          3          4          5          6
     1  Na  14.681518   0.190951  -0.580355   1.543789  -0.599570  -0.934045
     2  Na   0.190951  14.366173  -0.176694  -1.034136  -1.034019  -1.418605
     3  Na  -0.580355  -0.176694  12.774654  -0.220734  -1.620398   0.186760
     4  Na   1.543789  -1.034136  -0.220734  14.198030  -0.860973  -0.044930
     5  Na  -0.599570  -1.034019  -1.620398  -0.860973  14.260714   0.279235
     6  Na  -0.934045  -1.418605   0.186760  -0.044930   0.279235  13.486786
     7  Na  -2.444768   0.191127  -0.417513  -1.969423   0.712915  -0.441164
               7
     1  Na  -2.444768
     2  Na   0.191127
     3  Na  -0.417513
     4  Na  -1.969423
     5  Na   0.712915
     6  Na  -0.441164
     7  Na  14.617225
          Atomic-Atomic Spin Densities.
               1          2          3          4          5          6
     1  Na   0.149234   0.023423  -0.513689   0.043543   0.261194  -0.092389
     2  Na   0.023423   1.291884  -0.413203  -0.551836   0.534630  -0.215358
     3  Na  -0.513689  -0.413203   0.731477   0.064237  -0.178138   0.435451
     4  Na   0.043543  -0.551836   0.064237   0.406017  -0.187799   0.177797
     5  Na   0.261194   0.534630  -0.178138  -0.187799  -0.246372  -0.354507
     6  Na  -0.092389  -0.215358   0.435451   0.177797  -0.354507   0.033729
     7  Na   0.309255  -0.213090  -0.175089   0.248799   0.106597   0.010705
               7
     1  Na   0.309255
     2  Na  -0.213090
     3  Na  -0.175089
     4  Na   0.248799
     5  Na   0.106597
     6  Na   0.010705
     7  Na  -0.007035
 Mulliken charges and spin densities:
               1          2
     1  Na  -0.857520   0.180571
     2  Na  -0.084798   0.456450
     3  Na   1.054280  -0.048954
     4  Na  -0.611623   0.200757
     5  Na  -0.137905  -0.064394
     6  Na  -0.114037  -0.004572
     7  Na   0.751602   0.280142
 Sum of Mulliken charges =  -0.00000   1.00000
 Mulliken charges and spin densities with hydrogens summed into heavy atoms:
               1          2
     1  Na  -0.857520   0.180571
     2  Na  -0.084798   0.456450
     3  Na   1.054280  -0.048954
     4  Na  -0.611623   0.200757
     5  Na  -0.137905  -0.064394
     6  Na  -0.114037  -0.004572
     7  Na   0.751602   0.280142
 Electronic spatial extent (au):  <R**2>=           1596.1509
 Charge=             -0.0000 electrons
 Dipole moment (field-independent basis, Debye):
    X=              0.2141    Y=             -0.0148    Z=             -0.0767  Tot=              0.2279
 Quadrupole moment (field-independent basis, Debye-Ang):
   XX=            -55.4269   YY=            -75.1243   ZZ=            -65.8078
   XY=             -0.3715   XZ=              0.1011   YZ=              1.4354
 Traceless Quadrupole moment (field-independent basis, Debye-Ang):
   XX=             10.0261   YY=             -9.6713   ZZ=             -0.3548
   XY=             -0.3715   XZ=              0.1011   YZ=              1.4354
 Octapole moment (field-independent basis, Debye-Ang**2):
  XXX=             22.7708  YYY=              0.6180  ZZZ=              1.6561  XYY=             -4.5669
  XXY=             -0.1811  XXZ=             -6.5044  XZZ=             -5.3207  YZZ=              0.1352
  YYZ=              0.4657  XYZ=             -0.5043
 Hexadecapole moment (field-independent basis, Debye-Ang**3):
 XXXX=          -1132.9309 YYYY=           -955.9265 ZZZZ=           -672.3002 XXXY=             -2.3114
 XXXZ=            -10.5558 YYYX=            -34.9569 YYYZ=             12.6208 ZZZX=             -8.0788
 ZZZY=              6.1125 XXYY=           -358.6255 XXZZ=           -316.2438 YYZZ=           -269.2152
 XXYZ=             13.9492 YYXZ=             18.5085 ZZXY=             28.6342
 N-N= 4.116590875989D+02 E-N=-3.552905461044D+03  KE= 1.133515215126D+03
                          Isotropic Fermi Contact Couplings
        Atom                 a.u.       MegaHertz       Gauss      10(-4) cm-1
     1  Na(23)            -0.00151      -1.78176      -0.63578      -0.59433
     2  Na(23)             0.22587     267.21448      95.34877      89.13316
     3  Na(23)            -0.00368      -4.35738      -1.55482      -1.45347
     4  Na(23)             0.16871     199.58715      71.21766      66.57511
     5  Na(23)            -0.01751     -20.71970      -7.39330      -6.91135
     6  Na(23)             0.12124     143.43227      51.18020      47.84386
     7  Na(23)             0.22042     260.76584      93.04774      86.98212
 --------------------------------------------------------
       Center         ----  Spin Dipole Couplings  ----
                      3XX-RR        3YY-RR        3ZZ-RR
 --------------------------------------------------------
     1   Atom       -0.037900     -0.031697      0.069596
     2   Atom        0.002736      0.000322     -0.003058
     3   Atom       -0.007256     -0.014682      0.021938
     4   Atom       -0.003574     -0.000670      0.004244
     5   Atom       -0.029039     -0.027966      0.057005
     6   Atom        0.000082     -0.003109      0.003027
     7   Atom        0.013334     -0.000640     -0.012693
 --------------------------------------------------------
                        XY            XZ            YZ
 --------------------------------------------------------
     1   Atom       -0.003424     -0.010527      0.015968
     2   Atom        0.008900      0.015159      0.016642
     3   Atom        0.001154      0.010319      0.001591
     4   Atom        0.019047     -0.027846     -0.025736
     5   Atom       -0.002435      0.004472      0.011696
     6   Atom        0.011092     -0.020917     -0.021038
     7   Atom        0.014993      0.021017      0.014714
 --------------------------------------------------------


 ---------------------------------------------------------------------------------
              Anisotropic Spin Dipole Couplings in Principal Axis System
 ---------------------------------------------------------------------------------

       Atom             a.u.   MegaHertz   Gauss  10(-4) cm-1        Axes

              Baa    -0.0396    -5.586    -1.993    -1.863  0.9456  0.3225  0.0440
     1 Na(23) Bbb    -0.0336    -4.741    -1.692    -1.581 -0.3104  0.9341 -0.1763
              Bcc     0.0731    10.327     3.685     3.445 -0.0980  0.1530  0.9834
 
              Baa    -0.0200    -2.822    -1.007    -0.941 -0.3325 -0.5063  0.7956
     2 Na(23) Bbb    -0.0072    -1.014    -0.362    -0.338  0.7480 -0.6554 -0.1045
              Bcc     0.0272     3.836     1.369     1.280  0.5744  0.5604  0.5967
 
              Baa    -0.0149    -2.098    -0.749    -0.700 -0.1487  0.9889 -0.0011
     3 Na(23) Bbb    -0.0104    -1.475    -0.526    -0.492  0.9412  0.1412 -0.3068
              Bcc     0.0253     3.573     1.275     1.192  0.3033  0.0466  0.9518
 
              Baa    -0.0284    -4.014    -1.432    -1.339  0.6341  0.2449  0.7334
     4 Na(23) Bbb    -0.0206    -2.906    -1.037    -0.969 -0.5551  0.8045  0.2113
              Bcc     0.0490     6.919     2.469     2.308 -0.5383 -0.5412  0.6461
 
              Baa    -0.0324    -4.576    -1.633    -1.526  0.6876  0.7147 -0.1279
     5 Na(23) Bbb    -0.0264    -3.725    -1.329    -1.242  0.7246 -0.6868  0.0575
              Bcc     0.0588     8.300     2.962     2.769  0.0468  0.1322  0.9901
 
              Baa    -0.0237    -3.341    -1.192    -1.114  0.3984  0.5422  0.7398
     6 Na(23) Bbb    -0.0125    -1.767    -0.631    -0.590  0.7391 -0.6674  0.0912
              Bcc     0.0362     5.109     1.823     1.704 -0.5432 -0.5104  0.6667
 
              Baa    -0.0262    -3.695    -1.318    -1.232 -0.3567 -0.3005  0.8846
     7 Na(23) Bbb    -0.0101    -1.432    -0.511    -0.478 -0.5688  0.8210  0.0495
              Bcc     0.0363     5.127     1.829     1.710  0.7412  0.4855  0.4637
 

 ---------------------------------------------------------------------------------

 No NMR shielding tensors so no spin-rotation constants.
 Leave Link  601 at Mon Nov 13 17:06:12 2023, MaxMem=  1879048192 cpu:               2.6 elap:               0.2
 (Enter /home/sekinelabo/g16/l701.exe)
 ... and contract with generalized density number  0.
 Compute integral first derivatives.
 Leave Link  701 at Mon Nov 13 17:06:13 2023, MaxMem=  1879048192 cpu:               1.7 elap:               0.1
 (Enter /home/sekinelabo/g16/l702.exe)
 L702 exits ... SP integral derivatives will be done elsewhere.
 Leave Link  702 at Mon Nov 13 17:06:13 2023, MaxMem=  1879048192 cpu:               0.5 elap:               0.0
 (Enter /home/sekinelabo/g16/l703.exe)
 Integral derivatives from FoFJK, PRISM(SPDF).
 Compute integral first derivatives, UseDBF=F ICtDFT=           0.
 Calling FoFJK, ICntrl=      2127 FMM=F ISym2X=0 I1Cent= 0 IOpClX= 1 NMat=1 NMatS=1 NMatT=0.
 FoFJK:  IHMeth= 1 ICntrl=    2127 DoSepK=F KAlg= 0 I1Cent=           0 FoldK=F
 IRaf=         0 NMat=       1 IRICut=       1 DoRegI=T DoRafI=F ISym2E= 0 IDoP0=0 IntGTp=1.
 FoFCou: FMM=F IPFlag=           0 FMFlag=      100000 FMFlg1=         800
         NFxFlg=           0 DoJE=F BraDBF=F KetDBF=F FulRan=T
         wScrn=  0.000000 ICntrl=      2127 IOpCl=  1 I1Cent=           0 NGrid=           0
         NMat0=    1 NMatS0=      1 NMatT0=    0 NMatD0=    1 NMtDS0=    0 NMtDT0=    0
 Symmetry not used in FoFCou.
 Leave Link  703 at Mon Nov 13 17:06:15 2023, MaxMem=  1879048192 cpu:              38.3 elap:               2.4
 (Enter /home/sekinelabo/g16/l716.exe)
 Dipole        = 8.42240957D-02-5.80543870D-03-3.01912970D-02
 ***** Axes restored to original set *****
 -------------------------------------------------------------------
 Center     Atomic                   Forces (Hartrees/Bohr)
 Number     Number              X              Y              Z
 -------------------------------------------------------------------
      1       11           0.006649785    0.023775992   -0.000400556
      2       11           0.003486151   -0.005818660    0.023226682
      3       11           0.021064381    0.000544939    0.003558752
      4       11           0.004256773   -0.015527493   -0.018231989
      5       11          -0.013457211   -0.018472280   -0.001317434
      6       11          -0.010626310    0.011751676    0.014007162
      7       11          -0.011373569    0.003745826   -0.020842617
 -------------------------------------------------------------------
 Cartesian Forces:  Max     0.023775992 RMS     0.013438657
 Z-matrix is all fixed cartesians, so copy forces.
 Force constants in Cartesian coordinates: 
                1             2             3             4             5 
      1  0.184520D+00
      2  0.235713D-01  0.229701D+00
      3  0.198861D-02 -0.167162D-01  0.144300D+00
      4 -0.305725D-01 -0.106630D-01  0.498065D-02  0.222063D+00
      5  0.310477D-02 -0.495612D-01  0.383236D-01 -0.375889D-02  0.224418D+00
      6 -0.743367D-02 -0.425102D-02 -0.403154D-01  0.126724D-01 -0.359136D-01
      7 -0.435962D-01 -0.123169D-01  0.159013D-02 -0.477186D-01  0.941989D-02
      8  0.385272D-01 -0.458300D-01  0.117920D-01 -0.148870D-01 -0.464816D-01
      9 -0.820740D-02  0.510925D-02 -0.298721D-01  0.370056D-01  0.134133D-01
     10 -0.224154D-01 -0.129051D-01  0.486276D-02 -0.327408D-01  0.688025D-02
     11  0.102581D-01 -0.490931D-01 -0.304441D-01  0.156937D-02 -0.297458D-01
     12  0.807279D-02  0.781199D-02 -0.189715D-01  0.174228D-01 -0.304105D-01
     13  0.590222D-02 -0.158308D-01 -0.773094D-03 -0.591013D-01 -0.222113D-01
     14 -0.171770D-01 -0.510190D-02  0.328640D-02  0.941096D-02 -0.493125D-01
     15 -0.149986D-03  0.260660D-02  0.133760D-01 -0.345187D-01 -0.244690D-01
     16 -0.360655D-01  0.190797D-01  0.162641D-01 -0.428955D-01  0.695069D-02
     17 -0.269700D-01 -0.314731D-01  0.201342D-01  0.138262D-01 -0.452746D-01
     18  0.866275D-02 -0.761478D-02 -0.231016D-01 -0.241452D-01  0.282046D-01
     19 -0.577729D-01  0.906475D-02 -0.289131D-01 -0.903388D-02 -0.385434D-03
     20 -0.313144D-01 -0.486419D-01 -0.263758D-01  0.450234D-02 -0.404252D-02
     21 -0.293309D-02  0.130542D-01 -0.454159D-01 -0.134177D-01  0.108516D-01
                6             7             8             9            10 
      6  0.280634D+00
      7 -0.141892D-01  0.141427D+00
      8  0.968691D-02 -0.369847D-02  0.938047D-01
      9 -0.465265D-01  0.116582D-01 -0.506162D-02  0.835554D-01
     10 -0.559678D-02 -0.383760D-01 -0.233259D-01 -0.308595D-01  0.171305D+00
     11  0.173854D-01  0.102708D-01 -0.391740D-01 -0.100184D-01 -0.188614D-01
     12 -0.807998D-01  0.613018D-02 -0.134558D-01 -0.397002D-01 -0.216388D-01
     13 -0.253230D-03 -0.174296D-02 -0.695447D-02 -0.267678D-03 -0.370375D-01
     14  0.139808D-01 -0.565592D-02  0.123321D-01 -0.730462D-03  0.194370D-01
     15 -0.514986D-01 -0.965509D-03  0.120474D-02  0.127276D-01  0.229729D-01
     16  0.200739D-01 -0.421324D-02  0.468752D-02  0.216181D-02  0.170592D-02
     17 -0.111540D-01  0.199625D-02  0.113583D-01 -0.452735D-02  0.120538D-01
     18 -0.331964D-01  0.369694D-03 -0.422680D-02  0.830579D-02  0.992589D-02
     19 -0.527338D-02 -0.577995D-02  0.565116D-02 -0.114910D-01 -0.424410D-01
     20  0.102655D-01 -0.157017D-04  0.139906D-01  0.181523D-02  0.167214D-01
     21 -0.282975D-01 -0.459345D-02  0.606040D-04  0.115100D-01  0.203335D-01
               11            12            13            14            15 
     11  0.185373D+00
     12  0.394853D-01  0.195427D+00
     13 -0.224580D-01  0.375475D-02  0.134656D+00
     14 -0.304309D-01 -0.130342D-01  0.326956D-01  0.157928D+00
     15  0.133020D-01 -0.267805D-01 -0.162111D-02 -0.338288D-02  0.100204D+00
     16  0.110262D-01  0.932379D-02 -0.174769D-01 -0.206277D-01  0.546116D-03
     17  0.766112D-02 -0.105911D-01  0.198176D-01 -0.421551D-01 -0.219352D-01
     18 -0.108811D-01  0.337046D-02  0.104144D-01  0.605772D-03 -0.146185D-01
     19  0.819487D-02 -0.230655D-01 -0.251996D-01 -0.180830D-01  0.137362D-01
     20 -0.445904D-01  0.201943D-01  0.149413D-01 -0.432597D-01  0.326738D-01
     21 -0.188292D-01 -0.325453D-01 -0.112541D-01 -0.725436D-03 -0.334101D-01
               16            17            18            19            20 
     16  0.123778D+00
     17 -0.257018D-01  0.128108D+00
     18 -0.330141D-01  0.169535D-01  0.132230D+00
     19 -0.248324D-01  0.497797D-02  0.277866D-01  0.165060D+00
     20  0.458540D-02 -0.282245D-01 -0.230413D-01 -0.942037D-02  0.154768D+00
     21 -0.153556D-01  0.111200D-01 -0.729893D-01  0.272203D-01 -0.155318D-01
               21 
     21  0.201148D+00
 Leave Link  716 at Mon Nov 13 17:06:15 2023, MaxMem=  1879048192 cpu:               0.5 elap:               0.0
 (Enter /home/sekinelabo/g16/l103.exe)

 GradGradGradGradGradGradGradGradGradGradGradGradGradGradGradGradGradGrad
 Berny optimization.
 Search for a local minimum.
 Step number   1 out of a maximum of    2
 All quantities printed in internal units (Hartrees-Bohrs-Radians)
 Second derivative matrix not updated -- first step.
 ITU=  0
     Eigenvalues ---    0.10913   0.12371   0.14874   0.17307   0.18537
     Eigenvalues ---    0.19777   0.21558   0.23300   0.24205   0.25339
     Eigenvalues ---    0.26664   0.29445   0.30428   0.31329   0.36085
 Quadratic step=3.846D-01 exceeds max=3.000D-01 adjusted using Lamda=-4.036D-02.
 Angle between NR and scaled steps=   3.02 degrees.
 Angle between quadratic step and forces=  14.78 degrees.
 Linear search not attempted -- first point.
 B after Tr=     0.000000    0.000000    0.000000
         Rot=    1.000000    0.000000    0.000000   -0.000000 Ang=   0.00 deg.
 Variable       Old X    -DE/DX   Delta X   Delta X   Delta X     New X
                                 (Linear)    (Quad)   (Total)
    X1        5.11555   0.00665   0.00000   0.03425   0.03425   5.14980
    Y1        6.67722   0.02378   0.00000   0.09812   0.09812   6.77534
    Z1        2.39740  -0.00040   0.00000  -0.00689  -0.00689   2.39051
    X2        4.43648   0.00349   0.00000   0.01685   0.01685   4.45333
    Y2        2.04607  -0.00582   0.00000  -0.02885  -0.02885   2.01722
    Z2        5.60664   0.02323   0.00000   0.07464   0.07464   5.68128
    X3        9.30377   0.02106   0.00000   0.14362   0.14362   9.44740
    Y3        3.39093   0.00054   0.00000   0.00338   0.00338   3.39431
    Z3        3.55885   0.00356   0.00000   0.02010   0.02010   3.57894
    X4        5.37469   0.00426   0.00000   0.03303   0.03303   5.40772
    Y4        1.11946  -0.01553   0.00000  -0.06642  -0.06642   1.05304
    Z4        0.55711  -0.01823   0.00000  -0.06647  -0.06647   0.49064
    X5        0.27551  -0.01346   0.00000  -0.08334  -0.08334   0.19217
    Y5        0.00000  -0.01847   0.00000  -0.09629  -0.09629  -0.09629
    Z5        3.21405  -0.00132   0.00000  -0.00164  -0.00164   3.21242
    X6        0.00000  -0.01063   0.00000  -0.07734  -0.07734  -0.07734
    Y6        5.55722   0.01175   0.00000   0.06462   0.06462   5.62184
    Z6        5.04903   0.01401   0.00000   0.06163   0.06163   5.11066
    X7        0.95128  -0.01137   0.00000  -0.06708  -0.06708   0.88420
    Y7        4.64065   0.00375   0.00000   0.02544   0.02544   4.66608
    Z7        0.00000  -0.02084   0.00000  -0.08137  -0.08137  -0.08137
         Item               Value     Threshold  Converged?
 Maximum Force            0.023776     0.000450     NO 
 RMS     Force            0.013439     0.000300     NO 
 Maximum Displacement     0.143623     0.001800     NO 
 RMS     Displacement     0.065626     0.001200     NO 
 Predicted change in Energy=-1.077901D-02
 GradGradGradGradGradGradGradGradGradGradGradGradGradGradGradGradGradGrad

 Leave Link  103 at Mon Nov 13 17:06:15 2023, MaxMem=  1879048192 cpu:               0.3 elap:               0.0
 (Enter /home/sekinelabo/g16/l9999.exe)
 1\1\GINC-SEKINELABO-XA7R-R37\Force\UB3LYP\6-311+G(d)\Na7(2)\SEKINELABO
 \13-Nov-2023\0\\#P B3LYP/6-311+g(d) force\\Gaussian input prepared by 
 ASE\\0,2\Na,2.7070340899,3.5334310707,1.2686503055\Na,2.3476814986,1.0
 827327067,2.9669049741\Na,4.9233447576,1.7944053537,1.8832597826\Na,2.
 8441623311,0.5923926555,0.2948116329\Na,0.1457918685,0.,1.70080309\Na,
 0.,2.9407552082,2.671831842\Na,0.5033943507,2.4557252269,0.\\Version=E
 S64L-G16RevB.01\State=2-A\HF=-1136.0817936\S2=0.760616\S2-1=0.\S2A=0.7
 50066\RMSD=8.288e-09\RMSF=1.344e-02\Dipole=0.0842241,0.0058054,0.03019
 13\Quadrupole=7.4541813,-7.1903939,-0.2637874,0.2762137,-0.0751892,1.0
 672062\PG=C01 [X(Na7)]\\@


  DISAPPOINTMENT IS THE NURSE OF WISDOM.               
                              SIR BOYLE ROCHE                 
 Job cpu time:       0 days  0 hours  4 minutes 30.8 seconds.
 Elapsed time:       0 days  0 hours  0 minutes 21.9 seconds.
 File lengths (MBytes):  RWF=     32 Int=      0 D2E=      0 Chk=      5 Scr=      1
 Normal termination of Gaussian 16 at Mon Nov 13 17:06:15 2023.
