 Entering Gaussian System, Link 0=g16
 Initial command:
 /home/sekinelabo/g16/l1.exe "/home/sekinelabo/g16temp/Gau-4031362.inp" -scrdir="/home/sekinelabo/g16temp/"
 Entering Link 1 = /home/sekinelabo/g16/l1.exe PID=   4031364.
  
 Copyright (c) 1988-2017, Gaussian, Inc.  All Rights Reserved.
  
 This is part of the Gaussian(R) 16 program.  It is based on
 the Gaussian(R) 09 system (copyright 2009, Gaussian, Inc.),
 the Gaussian(R) 03 system (copyright 2003, Gaussian, Inc.),
 the Gaussian(R) 98 system (copyright 1998, Gaussian, Inc.),
 the Gaussian(R) 94 system (copyright 1995, Gaussian, Inc.),
 the Gaussian 92(TM) system (copyright 1992, Gaussian, Inc.),
 the Gaussian 90(TM) system (copyright 1990, Gaussian, Inc.),
 the Gaussian 88(TM) system (copyright 1988, Gaussian, Inc.),
 the Gaussian 86(TM) system (copyright 1986, Carnegie Mellon
 University), and the Gaussian 82(TM) system (copyright 1983,
 Carnegie Mellon University). Gaussian is a federally registered
 trademark of Gaussian, Inc.
  
 This software contains proprietary and confidential information,
 including trade secrets, belonging to Gaussian, Inc.
  
 This software is provided under written license and may be
 used, copied, transmitted, or stored only in accord with that
 written license.
  
 The following legend is applicable only to US Government
 contracts under FAR:
  
                    RESTRICTED RIGHTS LEGEND
  
 Use, reproduction and disclosure by the US Government is
 subject to restrictions as set forth in subparagraphs (a)
 and (c) of the Commercial Computer Software - Restricted
 Rights clause in FAR 52.227-19.
  
 Gaussian, Inc.
 340 Quinnipiac St., Bldg. 40, Wallingford CT 06492
  
  
 ---------------------------------------------------------------
 Warning -- This program may not be used in any manner that
 competes with the business of Gaussian, Inc. or will provide
 assistance to any competitor of Gaussian, Inc.  The licensee
 of this program is prohibited from giving any competitor of
 Gaussian, Inc. access to this program.  By using this program,
 the user acknowledges that Gaussian, Inc. is engaged in the
 business of creating and licensing software in the field of
 computational chemistry and represents and warrants to the
 licensee that it is not a competitor of Gaussian, Inc. and that
 it will not use this program in any manner prohibited above.
 ---------------------------------------------------------------
  

 Cite this work as:
 Gaussian 16, Revision B.01,
 M. J. Frisch, G. W. Trucks, H. B. Schlegel, G. E. Scuseria, 
 M. A. Robb, J. R. Cheeseman, G. Scalmani, V. Barone, 
 G. A. Petersson, H. Nakatsuji, X. Li, M. Caricato, A. V. Marenich, 
 J. Bloino, B. G. Janesko, R. Gomperts, B. Mennucci, H. P. Hratchian, 
 J. V. Ortiz, A. F. Izmaylov, J. L. Sonnenberg, D. Williams-Young, 
 F. Ding, F. Lipparini, F. Egidi, J. Goings, B. Peng, A. Petrone, 
 T. Henderson, D. Ranasinghe, V. G. Zakrzewski, J. Gao, N. Rega, 
 G. Zheng, W. Liang, M. Hada, M. Ehara, K. Toyota, R. Fukuda, 
 J. Hasegawa, M. Ishida, T. Nakajima, Y. Honda, O. Kitao, H. Nakai, 
 T. Vreven, K. Throssell, J. A. Montgomery, Jr., J. E. Peralta, 
 F. Ogliaro, M. J. Bearpark, J. J. Heyd, E. N. Brothers, K. N. Kudin, 
 V. N. Staroverov, T. A. Keith, R. Kobayashi, J. Normand, 
 K. Raghavachari, A. P. Rendell, J. C. Burant, S. S. Iyengar, 
 J. Tomasi, M. Cossi, J. M. Millam, M. Klene, C. Adamo, R. Cammi, 
 J. W. Ochterski, R. L. Martin, K. Morokuma, O. Farkas, 
 J. B. Foresman, and D. J. Fox, Gaussian, Inc., Wallingford CT, 2016.
 
 ******************************************
 Gaussian 16:  ES64L-G16RevB.01 20-Dec-2017
                13-Nov-2023 
 ******************************************
 %mem=14GB
 %chk=checkpoint.chk
 %nprocshared=16
 Will use up to   16 processors via shared memory.
 -------------------------
 #P B3LYP/6-311+g(d) force
 -------------------------
 1/10=7,30=1,38=1/1,3;
 2/12=2,17=6,18=5,40=1/2;
 3/5=4,6=6,7=11,11=2,25=1,30=1,71=1,74=-5/1,2,3;
 4//1;
 5/5=2,38=5/2;
 6/7=2,8=2,9=2,10=2,28=1/1;
 7/29=1/1,2,3,16;
 1/10=7,30=1/3;
 99//99;
 Leave Link    1 at Mon Nov 13 15:56:52 2023, MaxMem=  1879048192 cpu:               0.3 elap:               0.0
 (Enter /home/sekinelabo/g16/l101.exe)
 ------------------------------
 Gaussian input prepared by ASE
 ------------------------------
 Symbolic Z-matrix:
 Charge =  0 Multiplicity = 2
 Na                    3.57625   0.73625   0.42223 
 Na                    4.0247    1.02185   3.37437 
 Na                    6.36524   0.76007   1.51557 
 Na                    5.32749   3.13033   0. 
 Na                    2.92539   3.32218   1.79163 
 Na                    0.        2.64691   1.70397 
 Na                    0.66467   0.        0.45516 
 
 ITRead=  0  0  0  0  0  0  0
 MicOpt= -1 -1 -1 -1 -1 -1 -1
 NAtoms=      7 NQM=        7 NQMF=       0 NMMI=      0 NMMIF=      0
                NMic=       0 NMicF=      0.
                    Isotopes and Nuclear Properties:
 (Nuclear quadrupole moments (NQMom) in fm**2, nuclear magnetic moments (NMagM)
  in nuclear magnetons)

  Atom         1           2           3           4           5           6           7
 IAtWgt=          23          23          23          23          23          23          23
 AtmWgt=  22.9897697  22.9897697  22.9897697  22.9897697  22.9897697  22.9897697  22.9897697
 NucSpn=           3           3           3           3           3           3           3
 AtZEff=  -0.0000000  -0.0000000  -0.0000000  -0.0000000  -0.0000000  -0.0000000  -0.0000000
 NQMom=   10.4000000  10.4000000  10.4000000  10.4000000  10.4000000  10.4000000  10.4000000
 NMagM=    2.2175200   2.2175200   2.2175200   2.2175200   2.2175200   2.2175200   2.2175200
 AtZNuc=  11.0000000  11.0000000  11.0000000  11.0000000  11.0000000  11.0000000  11.0000000
 Leave Link  101 at Mon Nov 13 15:56:52 2023, MaxMem=  1879048192 cpu:               2.6 elap:               0.2
 (Enter /home/sekinelabo/g16/l103.exe)

 GradGradGradGradGradGradGradGradGradGradGradGradGradGradGradGradGradGrad
 Berny optimization.
 Initialization pass.
 Trust Radius=3.00D-01 FncErr=1.00D-07 GrdErr=1.00D-07 EigMax=2.50D+02 EigMin=1.00D-04
 Number of steps in this run=      2 maximum allowed number of steps=      2.
 GradGradGradGradGradGradGradGradGradGradGradGradGradGradGradGradGradGrad

 Leave Link  103 at Mon Nov 13 15:56:52 2023, MaxMem=  1879048192 cpu:               0.2 elap:               0.0
 (Enter /home/sekinelabo/g16/l202.exe)
                          Input orientation:                          
 ---------------------------------------------------------------------
 Center     Atomic      Atomic             Coordinates (Angstroms)
 Number     Number       Type             X           Y           Z
 ---------------------------------------------------------------------
      1         11           0        3.576253    0.736248    0.422235
      2         11           0        4.024697    1.021847    3.374370
      3         11           0        6.365241    0.760071    1.515567
      4         11           0        5.327492    3.130326    0.000000
      5         11           0        2.925386    3.322177    1.791629
      6         11           0        0.000000    2.646914    1.703974
      7         11           0        0.664671    0.000000    0.455163
 ---------------------------------------------------------------------
                    Distance matrix (angstroms):
                    1          2          3          4          5
     1  Na   0.000000
     2  Na   2.999629   0.000000
     3  Na   2.995730   3.000304   0.000000
     4  Na   2.996119   4.186805   2.998662   0.000000
     5  Na   2.997649   3.000846   4.298046   3.002808   0.000000
     6  Na   4.252421   4.650726   6.641684   5.614213   3.003589
     7  Na   3.003408   4.566806   5.847963   5.634538   4.234836
                    6          7
     6  Na   0.000000
     7  Na   3.001244   0.000000
 Stoichiometry    Na7(2)
 Framework group  C1[X(Na7)]
 Deg. of freedom    15
 Full point group                 C1      NOp   1
 Largest Abelian subgroup         C1      NOp   1
 Largest concise Abelian subgroup C1      NOp   1
                         Standard orientation:                         
 ---------------------------------------------------------------------
 Center     Atomic      Atomic             Coordinates (Angstroms)
 Number     Number       Type             X           Y           Z
 ---------------------------------------------------------------------
      1         11           0        0.307147   -0.923407   -0.901042
      2         11           0        0.755591   -0.637808    2.051093
      3         11           0        3.096136   -0.899583    0.192290
      4         11           0        2.058387    1.470671   -1.323277
      5         11           0       -0.343720    1.662522    0.468352
      6         11           0       -3.269106    0.987259    0.380697
      7         11           0       -2.604435   -1.659655   -0.868113
 ---------------------------------------------------------------------
 Rotational constants (GHZ):           1.1787316           0.5495509           0.5136011
 Leave Link  202 at Mon Nov 13 15:56:52 2023, MaxMem=  1879048192 cpu:               0.0 elap:               0.0
 (Enter /home/sekinelabo/g16/l301.exe)
 Standard basis: 6-311+G(d) (5D, 7F)
 Ernie: Thresh=  0.10000D-02 Tol=  0.10000D-05 Strict=F.
 There are   217 symmetry adapted cartesian basis functions of A   symmetry.
 There are   210 symmetry adapted basis functions of A   symmetry.
   210 basis functions,   350 primitive gaussians,   217 cartesian basis functions
    39 alpha electrons       38 beta electrons
       nuclear repulsion energy       366.2944000287 Hartrees.
 IExCor=  402 DFT=T Ex+Corr=B3LYP ExCW=0 ScaHFX=  0.200000
 ScaDFX=  0.800000  0.720000  1.000000  0.810000 ScalE2=  1.000000  1.000000
 IRadAn=      5 IRanWt=     -1 IRanGd=            0 ICorTp=0 IEmpDi=  4
 NAtoms=    7 NActive=    7 NUniq=    7 SFac= 1.00D+00 NAtFMM=   60 NAOKFM=F Big=F
 Integral buffers will be    131072 words long.
 Raffenetti 2 integral format.
 Two-electron integral symmetry is turned on.
 Leave Link  301 at Mon Nov 13 15:56:52 2023, MaxMem=  1879048192 cpu:               0.5 elap:               0.0
 (Enter /home/sekinelabo/g16/l302.exe)
 NPDir=0 NMtPBC=     1 NCelOv=     1 NCel=       1 NClECP=     1 NCelD=      1
         NCelK=      1 NCelE2=     1 NClLst=     1 CellRange=     0.0.
 One-electron integrals computed using PRISM.
 One-electron integral symmetry used in STVInt
 NBasis=   210 RedAO= T EigKep=  1.29D-06  NBF=   210
 NBsUse=   210 1.00D-06 EigRej= -1.00D+00 NBFU=   210
 Precomputing XC quadrature grid using
 IXCGrd= 4 IRadAn=           5 IRanWt=          -1 IRanGd=           0 AccXCQ= 0.00D+00.
 Generated NRdTot=       0 NPtTot=           0 NUsed=           0 NTot=          32
 NSgBfM=   210   210   210   210   210 MxSgAt=     7 MxSgA2=     7.
 Leave Link  302 at Mon Nov 13 15:56:52 2023, MaxMem=  1879048192 cpu:               2.1 elap:               0.1
 (Enter /home/sekinelabo/g16/l303.exe)
 DipDrv:  MaxL=1.
 Leave Link  303 at Mon Nov 13 15:56:52 2023, MaxMem=  1879048192 cpu:               0.6 elap:               0.0
 (Enter /home/sekinelabo/g16/l401.exe)
 ExpMin= 7.60D-03 ExpMax= 3.62D+04 ExpMxC= 1.21D+03 IAcc=3 IRadAn=         5 AccDes= 0.00D+00
 Harris functional with IExCor=  402 and IRadAn=       5 diagonalized for initial guess.
 HarFok:  IExCor=  402 AccDes= 0.00D+00 IRadAn=         5 IDoV= 1 UseB2=F ITyADJ=14
 ICtDFT=  3500011 ScaDFX=  1.000000  1.000000  1.000000  1.000000
 FoFCou: FMM=F IPFlag=           0 FMFlag=      100000 FMFlg1=           0
         NFxFlg=           0 DoJE=T BraDBF=F KetDBF=T FulRan=T
         wScrn=  0.000000 ICntrl=       500 IOpCl=  0 I1Cent=   200000004 NGrid=           0
         NMat0=    1 NMatS0=      1 NMatT0=    0 NMatD0=    1 NMtDS0=    0 NMtDT0=    0
 Petite list used in FoFCou.
 Harris En= -1135.86757843479    
 JPrj=0 DoOrth=F DoCkMO=F.
 Initial guess <Sx>= 0.0000 <Sy>= 0.0000 <Sz>= 0.5000 <S**2>= 0.7500 S= 0.5000
 Leave Link  401 at Mon Nov 13 15:56:52 2023, MaxMem=  1879048192 cpu:               5.5 elap:               0.4
 (Enter /home/sekinelabo/g16/l502.exe)
 Keep R1 and R2 ints in memory in canonical form, NReq=507620374.
 FoFCou: FMM=F IPFlag=           0 FMFlag=           0 FMFlg1=           0
         NFxFlg=           0 DoJE=F BraDBF=F KetDBF=F FulRan=T
         wScrn=  0.000000 ICntrl=       600 IOpCl=  0 I1Cent=           0 NGrid=           0
         NMat0=    1 NMatS0=  22155 NMatT0=    0 NMatD0=    1 NMtDS0=    0 NMtDT0=    0
 Symmetry not used in FoFCou.
 Two-electron integral symmetry not used.
 UHF open shell SCF:
 Using DIIS extrapolation, IDIIS=  1040.
 NGot=  1879048192 LenX=  1388082362 LenY=  1388034832
 Requested convergence on RMS density matrix=1.00D-08 within 128 cycles.
 Requested convergence on MAX density matrix=1.00D-06.
 Requested convergence on             energy=1.00D-06.
 No special actions if energy rises.

 Cycle   1  Pass 1  IDiag  1:
 E= -1136.05137985119    
 DIIS: error= 1.19D-02 at cycle   1 NSaved=   1.
 NSaved= 1 IEnMin= 1 EnMin= -1136.05137985119     IErMin= 1 ErrMin= 1.19D-02
 ErrMax= 1.19D-02  0.00D+00 EMaxC= 1.00D-01 BMatC= 2.03D-01 BMatP= 2.03D-01
 IDIUse=3 WtCom= 8.81D-01 WtEn= 1.19D-01
 Coeff-Com:  0.100D+01
 Coeff-En:   0.100D+01
 Coeff:      0.100D+01
 Gap=     0.032 Goal=   None    Shift=    0.000
 Gap=     0.028 Goal=   None    Shift=    0.000
 GapD=    0.028 DampG=0.250 DampE=0.500 DampFc=0.2500 IDamp=-1.
 Damping current iteration by 2.50D-01
 RMSDP=5.84D-02 MaxDP=4.99D+00              OVMax= 3.34D-01

 Cycle   2  Pass 1  IDiag  1:
 E= -1136.06628066249     Delta-E=       -0.014900811300 Rises=F Damp=T
 DIIS: error= 8.20D-03 at cycle   2 NSaved=   2.
 NSaved= 2 IEnMin= 2 EnMin= -1136.06628066249     IErMin= 2 ErrMin= 8.20D-03
 ErrMax= 8.20D-03  0.00D+00 EMaxC= 1.00D-01 BMatC= 7.54D-02 BMatP= 2.03D-01
 IDIUse=3 WtCom= 9.18D-01 WtEn= 8.20D-02
 Coeff-Com: -0.118D+01 0.218D+01
 Coeff-En:   0.000D+00 0.100D+01
 Coeff:     -0.109D+01 0.209D+01
 Gap=     0.049 Goal=   None    Shift=    0.000
 Gap=     0.028 Goal=   None    Shift=    0.000
 RMSDP=3.11D-02 MaxDP=2.89D+00 DE=-1.49D-02 OVMax= 3.39D-01

 Cycle   3  Pass 1  IDiag  1:
 E= -1136.07803693278     Delta-E=       -0.011756270284 Rises=F Damp=F
 DIIS: error= 5.60D-03 at cycle   3 NSaved=   3.
 NSaved= 3 IEnMin= 3 EnMin= -1136.07803693278     IErMin= 3 ErrMin= 5.60D-03
 ErrMax= 5.60D-03  0.00D+00 EMaxC= 1.00D-01 BMatC= 1.53D-02 BMatP= 7.54D-02
 IDIUse=3 WtCom= 9.44D-01 WtEn= 5.60D-02
 Coeff-Com: -0.550D+00 0.977D+00 0.574D+00
 Coeff-En:   0.000D+00 0.272D-02 0.997D+00
 Coeff:     -0.519D+00 0.922D+00 0.597D+00
 Gap=     0.042 Goal=   None    Shift=    0.000
 Gap=     0.030 Goal=   None    Shift=    0.000
 RMSDP=1.85D-02 MaxDP=1.19D+00 DE=-1.18D-02 OVMax= 2.86D-01

 Cycle   4  Pass 1  IDiag  1:
 E= -1136.07800236412     Delta-E=        0.000034568660 Rises=F Damp=F
 DIIS: error= 6.29D-03 at cycle   4 NSaved=   4.
 NSaved= 4 IEnMin= 3 EnMin= -1136.07803693278     IErMin= 3 ErrMin= 5.60D-03
 ErrMax= 6.29D-03  0.00D+00 EMaxC= 1.00D-01 BMatC= 1.36D-02 BMatP= 1.53D-02
 IDIUse=3 WtCom= 9.37D-01 WtEn= 6.29D-02
 Coeff-Com: -0.736D-01 0.128D+00 0.470D+00 0.476D+00
 Coeff-En:   0.000D+00 0.000D+00 0.500D+00 0.500D+00
 Coeff:     -0.689D-01 0.120D+00 0.472D+00 0.477D+00
 Gap=     0.043 Goal=   None    Shift=    0.000
 Gap=     0.029 Goal=   None    Shift=    0.000
 RMSDP=1.21D-02 MaxDP=9.55D-01 DE= 3.46D-05 OVMax= 1.91D-01

 Cycle   5  Pass 1  IDiag  1:
 E= -1136.09321274202     Delta-E=       -0.015210377903 Rises=F Damp=F
 DIIS: error= 1.66D-03 at cycle   5 NSaved=   5.
 NSaved= 5 IEnMin= 5 EnMin= -1136.09321274202     IErMin= 5 ErrMin= 1.66D-03
 ErrMax= 1.66D-03  0.00D+00 EMaxC= 1.00D-01 BMatC= 1.21D-03 BMatP= 1.36D-02
 IDIUse=3 WtCom= 9.83D-01 WtEn= 1.66D-02
 Coeff-Com: -0.801D-02 0.103D-01 0.248D+00 0.303D+00 0.446D+00
 Coeff-En:   0.000D+00 0.000D+00 0.000D+00 0.581D-01 0.942D+00
 Coeff:     -0.788D-02 0.101D-01 0.244D+00 0.299D+00 0.454D+00
 Gap=     0.041 Goal=   None    Shift=    0.000
 Gap=     0.031 Goal=   None    Shift=    0.000
 RMSDP=3.58D-03 MaxDP=3.56D-01 DE=-1.52D-02 OVMax= 4.32D-02

 Cycle   6  Pass 1  IDiag  1:
 E= -1136.09438526055     Delta-E=       -0.001172518525 Rises=F Damp=F
 DIIS: error= 3.34D-04 at cycle   6 NSaved=   6.
 NSaved= 6 IEnMin= 6 EnMin= -1136.09438526055     IErMin= 6 ErrMin= 3.34D-04
 ErrMax= 3.34D-04  0.00D+00 EMaxC= 1.00D-01 BMatC= 2.66D-05 BMatP= 1.21D-03
 IDIUse=3 WtCom= 9.97D-01 WtEn= 3.34D-03
 Coeff-Com: -0.168D-02 0.175D-02-0.184D-01-0.292D-01 0.906D-01 0.957D+00
 Coeff-En:   0.000D+00 0.000D+00 0.000D+00 0.000D+00 0.000D+00 0.100D+01
 Coeff:     -0.167D-02 0.175D-02-0.184D-01-0.291D-01 0.903D-01 0.957D+00
 Gap=     0.041 Goal=   None    Shift=    0.000
 Gap=     0.031 Goal=   None    Shift=    0.000
 RMSDP=1.29D-03 MaxDP=1.08D-01 DE=-1.17D-03 OVMax= 1.01D-02

 Cycle   7  Pass 1  IDiag  1:
 E= -1136.09442903279     Delta-E=       -0.000043772242 Rises=F Damp=F
 DIIS: error= 7.69D-05 at cycle   7 NSaved=   7.
 NSaved= 7 IEnMin= 7 EnMin= -1136.09442903279     IErMin= 7 ErrMin= 7.69D-05
 ErrMax= 7.69D-05  0.00D+00 EMaxC= 1.00D-01 BMatC= 9.47D-07 BMatP= 2.66D-05
 IDIUse=1 WtCom= 1.00D+00 WtEn= 0.00D+00
 Coeff-Com:  0.155D-02-0.209D-02-0.476D-02-0.545D-02-0.320D-01-0.129D+00
 Coeff-Com:  0.117D+01
 Coeff:      0.155D-02-0.209D-02-0.476D-02-0.545D-02-0.320D-01-0.129D+00
 Coeff:      0.117D+01
 Gap=     0.041 Goal=   None    Shift=    0.000
 Gap=     0.032 Goal=   None    Shift=    0.000
 RMSDP=3.63D-04 MaxDP=2.55D-02 DE=-4.38D-05 OVMax= 6.45D-03

 Cycle   8  Pass 1  IDiag  1:
 E= -1136.09443555623     Delta-E=       -0.000006523441 Rises=F Damp=F
 DIIS: error= 3.58D-05 at cycle   8 NSaved=   8.
 NSaved= 8 IEnMin= 8 EnMin= -1136.09443555623     IErMin= 8 ErrMin= 3.58D-05
 ErrMax= 3.58D-05  0.00D+00 EMaxC= 1.00D-01 BMatC= 2.93D-07 BMatP= 9.47D-07
 IDIUse=1 WtCom= 1.00D+00 WtEn= 0.00D+00
 Coeff-Com:  0.292D-03-0.334D-03-0.343D-03 0.137D-02-0.166D-01-0.131D+00
 Coeff-Com:  0.912D-01 0.106D+01
 Coeff:      0.292D-03-0.334D-03-0.343D-03 0.137D-02-0.166D-01-0.131D+00
 Coeff:      0.912D-01 0.106D+01
 Gap=     0.041 Goal=   None    Shift=    0.000
 Gap=     0.032 Goal=   None    Shift=    0.000
 RMSDP=2.50D-04 MaxDP=1.66D-02 DE=-6.52D-06 OVMax= 4.11D-03

 Cycle   9  Pass 1  IDiag  1:
 E= -1136.09443777990     Delta-E=       -0.000002223675 Rises=F Damp=F
 DIIS: error= 1.51D-05 at cycle   9 NSaved=   9.
 NSaved= 9 IEnMin= 9 EnMin= -1136.09443777990     IErMin= 9 ErrMin= 1.51D-05
 ErrMax= 1.51D-05  0.00D+00 EMaxC= 1.00D-01 BMatC= 1.45D-07 BMatP= 2.93D-07
 IDIUse=1 WtCom= 1.00D+00 WtEn= 0.00D+00
 Coeff-Com: -0.677D-04 0.125D-03 0.173D-02 0.179D-02 0.130D-02-0.298D-01
 Coeff-Com: -0.292D+00 0.406D+00 0.910D+00
 Coeff:     -0.677D-04 0.125D-03 0.173D-02 0.179D-02 0.130D-02-0.298D-01
 Coeff:     -0.292D+00 0.406D+00 0.910D+00
 Gap=     0.041 Goal=   None    Shift=    0.000
 Gap=     0.032 Goal=   None    Shift=    0.000
 RMSDP=1.12D-04 MaxDP=7.06D-03 DE=-2.22D-06 OVMax= 3.12D-03

 Cycle  10  Pass 1  IDiag  1:
 E= -1136.09443864739     Delta-E=       -0.000000867484 Rises=F Damp=F
 DIIS: error= 1.38D-05 at cycle  10 NSaved=  10.
 NSaved=10 IEnMin=10 EnMin= -1136.09443864739     IErMin=10 ErrMin= 1.38D-05
 ErrMax= 1.38D-05  0.00D+00 EMaxC= 1.00D-01 BMatC= 6.97D-08 BMatP= 1.45D-07
 IDIUse=1 WtCom= 1.00D+00 WtEn= 0.00D+00
 Coeff-Com: -0.471D-04 0.763D-04 0.133D-02 0.435D-03 0.556D-02 0.166D-01
 Coeff-Com: -0.196D+00-0.426D-01 0.536D+00 0.678D+00
 Coeff:     -0.471D-04 0.763D-04 0.133D-02 0.435D-03 0.556D-02 0.166D-01
 Coeff:     -0.196D+00-0.426D-01 0.536D+00 0.678D+00
 Gap=     0.041 Goal=   None    Shift=    0.000
 Gap=     0.032 Goal=   None    Shift=    0.000
 RMSDP=7.06D-05 MaxDP=5.60D-03 DE=-8.67D-07 OVMax= 1.57D-03

 Cycle  11  Pass 1  IDiag  1:
 E= -1136.09443893243     Delta-E=       -0.000000285042 Rises=F Damp=F
 DIIS: error= 5.65D-06 at cycle  11 NSaved=  11.
 NSaved=11 IEnMin=11 EnMin= -1136.09443893243     IErMin=11 ErrMin= 5.65D-06
 ErrMax= 5.65D-06  0.00D+00 EMaxC= 1.00D-01 BMatC= 1.42D-08 BMatP= 6.97D-08
 IDIUse=1 WtCom= 1.00D+00 WtEn= 0.00D+00
 Coeff-Com: -0.306D-04 0.370D-04 0.617D-04-0.531D-03 0.317D-02 0.230D-01
 Coeff-Com: -0.210D-03-0.126D+00-0.869D-01 0.143D+00 0.104D+01
 Coeff:     -0.306D-04 0.370D-04 0.617D-04-0.531D-03 0.317D-02 0.230D-01
 Coeff:     -0.210D-03-0.126D+00-0.869D-01 0.143D+00 0.104D+01
 Gap=     0.041 Goal=   None    Shift=    0.000
 Gap=     0.032 Goal=   None    Shift=    0.000
 RMSDP=5.65D-05 MaxDP=5.43D-03 DE=-2.85D-07 OVMax= 1.30D-03

 Cycle  12  Pass 1  IDiag  1:
 E= -1136.09443907371     Delta-E=       -0.000000141283 Rises=F Damp=F
 DIIS: error= 5.05D-06 at cycle  12 NSaved=  12.
 NSaved=12 IEnMin=12 EnMin= -1136.09443907371     IErMin=12 ErrMin= 5.05D-06
 ErrMax= 5.05D-06  0.00D+00 EMaxC= 1.00D-01 BMatC= 6.08D-09 BMatP= 1.42D-08
 IDIUse=1 WtCom= 1.00D+00 WtEn= 0.00D+00
 Coeff-Com:  0.175D-04-0.276D-04-0.453D-03-0.394D-03-0.110D-02 0.662D-03
 Coeff-Com:  0.741D-01-0.867D-02-0.237D+00-0.246D+00 0.311D+00 0.111D+01
 Coeff:      0.175D-04-0.276D-04-0.453D-03-0.394D-03-0.110D-02 0.662D-03
 Coeff:      0.741D-01-0.867D-02-0.237D+00-0.246D+00 0.311D+00 0.111D+01
 Gap=     0.041 Goal=   None    Shift=    0.000
 Gap=     0.032 Goal=   None    Shift=    0.000
 RMSDP=4.49D-05 MaxDP=3.61D-03 DE=-1.41D-07 OVMax= 1.13D-03

 Cycle  13  Pass 1  IDiag  1:
 E= -1136.09443915691     Delta-E=       -0.000000083201 Rises=F Damp=F
 DIIS: error= 3.93D-06 at cycle  13 NSaved=  13.
 NSaved=13 IEnMin=13 EnMin= -1136.09443915691     IErMin=13 ErrMin= 3.93D-06
 ErrMax= 3.93D-06  0.00D+00 EMaxC= 1.00D-01 BMatC= 2.98D-09 BMatP= 6.08D-09
 IDIUse=1 WtCom= 1.00D+00 WtEn= 0.00D+00
 Coeff-Com:  0.360D-04-0.469D-04-0.211D-03-0.269D-04-0.159D-02-0.775D-02
 Coeff-Com:  0.318D-01 0.294D-01-0.645D-01-0.143D+00-0.179D+00 0.505D+00
 Coeff-Com:  0.830D+00
 Coeff:      0.360D-04-0.469D-04-0.211D-03-0.269D-04-0.159D-02-0.775D-02
 Coeff:      0.318D-01 0.294D-01-0.645D-01-0.143D+00-0.179D+00 0.505D+00
 Coeff:      0.830D+00
 Gap=     0.041 Goal=   None    Shift=    0.000
 Gap=     0.032 Goal=   None    Shift=    0.000
 RMSDP=2.87D-05 MaxDP=3.49D-03 DE=-8.32D-08 OVMax= 6.06D-04

 Cycle  14  Pass 1  IDiag  1:
 E= -1136.09443919243     Delta-E=       -0.000000035514 Rises=F Damp=F
 DIIS: error= 2.88D-06 at cycle  14 NSaved=  14.
 NSaved=14 IEnMin=14 EnMin= -1136.09443919243     IErMin=14 ErrMin= 2.88D-06
 ErrMax= 2.88D-06  0.00D+00 EMaxC= 1.00D-01 BMatC= 1.70D-09 BMatP= 2.98D-09
 IDIUse=1 WtCom= 1.00D+00 WtEn= 0.00D+00
 Coeff-Com:  0.102D-04-0.106D-04 0.111D-03 0.209D-03-0.206D-03-0.466D-02
 Coeff-Com: -0.338D-01 0.257D-01 0.132D+00 0.699D-01-0.347D+00-0.480D+00
 Coeff-Com:  0.517D+00 0.112D+01
 Coeff:      0.102D-04-0.106D-04 0.111D-03 0.209D-03-0.206D-03-0.466D-02
 Coeff:     -0.338D-01 0.257D-01 0.132D+00 0.699D-01-0.347D+00-0.480D+00
 Coeff:      0.517D+00 0.112D+01
 Gap=     0.041 Goal=   None    Shift=    0.000
 Gap=     0.032 Goal=   None    Shift=    0.000
 RMSDP=3.57D-05 MaxDP=3.58D-03 DE=-3.55D-08 OVMax= 8.39D-04

 Cycle  15  Pass 1  IDiag  1:
 E= -1136.09443922796     Delta-E=       -0.000000035538 Rises=F Damp=F
 DIIS: error= 2.03D-06 at cycle  15 NSaved=  15.
 NSaved=15 IEnMin=15 EnMin= -1136.09443922796     IErMin=15 ErrMin= 2.03D-06
 ErrMax= 2.03D-06  0.00D+00 EMaxC= 1.00D-01 BMatC= 6.60D-10 BMatP= 1.70D-09
 IDIUse=1 WtCom= 1.00D+00 WtEn= 0.00D+00
 Coeff-Com: -0.163D-04 0.207D-04 0.838D-04-0.465D-04 0.738D-03 0.467D-02
 Coeff-Com: -0.106D-02-0.321D-01 0.271D-02 0.621D-01 0.138D+00-0.191D+00
 Coeff-Com: -0.459D+00-0.112D+00 0.159D+01
 Coeff:     -0.163D-04 0.207D-04 0.838D-04-0.465D-04 0.738D-03 0.467D-02
 Coeff:     -0.106D-02-0.321D-01 0.271D-02 0.621D-01 0.138D+00-0.191D+00
 Coeff:     -0.459D+00-0.112D+00 0.159D+01
 Gap=     0.041 Goal=   None    Shift=    0.000
 Gap=     0.032 Goal=   None    Shift=    0.000
 RMSDP=3.86D-05 MaxDP=4.12D-03 DE=-3.55D-08 OVMax= 7.27D-04

 Cycle  16  Pass 1  IDiag  1:
 E= -1136.09443924940     Delta-E=       -0.000000021432 Rises=F Damp=F
 DIIS: error= 1.14D-06 at cycle  16 NSaved=  16.
 NSaved=16 IEnMin=16 EnMin= -1136.09443924940     IErMin=16 ErrMin= 1.14D-06
 ErrMax= 1.14D-06  0.00D+00 EMaxC= 1.00D-01 BMatC= 3.75D-10 BMatP= 6.60D-10
 IDIUse=1 WtCom= 1.00D+00 WtEn= 0.00D+00
 Coeff-Com: -0.123D-05-0.223D-06-0.940D-04-0.849D-04-0.161D-03 0.177D-02
 Coeff-Com:  0.187D-01-0.936D-02-0.717D-01-0.348D-01 0.145D+00 0.279D+00
 Coeff-Com: -0.203D+00-0.420D+00-0.239D+00 0.153D+01
 Coeff:     -0.123D-05-0.223D-06-0.940D-04-0.849D-04-0.161D-03 0.177D-02
 Coeff:      0.187D-01-0.936D-02-0.717D-01-0.348D-01 0.145D+00 0.279D+00
 Coeff:     -0.203D+00-0.420D+00-0.239D+00 0.153D+01
 Gap=     0.041 Goal=   None    Shift=    0.000
 Gap=     0.032 Goal=   None    Shift=    0.000
 RMSDP=2.86D-05 MaxDP=2.90D-03 DE=-2.14D-08 OVMax= 4.38D-04

 Cycle  17  Pass 1  IDiag  1:
 E= -1136.09443925964     Delta-E=       -0.000000010245 Rises=F Damp=F
 DIIS: error= 1.02D-06 at cycle  17 NSaved=  17.
 NSaved=17 IEnMin=17 EnMin= -1136.09443925964     IErMin=17 ErrMin= 1.02D-06
 ErrMax= 1.02D-06  0.00D+00 EMaxC= 1.00D-01 BMatC= 2.28D-10 BMatP= 3.75D-10
 IDIUse=1 WtCom= 1.00D+00 WtEn= 0.00D+00
 Coeff-Com:  0.792D-05-0.107D-04-0.646D-04 0.151D-04-0.338D-03-0.175D-02
 Coeff-Com:  0.215D-03 0.265D-02 0.106D-01-0.328D-02-0.636D-01-0.195D-01
 Coeff-Com:  0.185D+00 0.952D-01-0.345D+00-0.850D+00 0.199D+01
 Coeff:      0.792D-05-0.107D-04-0.646D-04 0.151D-04-0.338D-03-0.175D-02
 Coeff:      0.215D-03 0.265D-02 0.106D-01-0.328D-02-0.636D-01-0.195D-01
 Coeff:      0.185D+00 0.952D-01-0.345D+00-0.850D+00 0.199D+01
 Gap=     0.041 Goal=   None    Shift=    0.000
 Gap=     0.032 Goal=   None    Shift=    0.000
 RMSDP=3.14D-05 MaxDP=3.34D-03 DE=-1.02D-08 OVMax= 5.10D-04

 Cycle  18  Pass 1  IDiag  1:
 E= -1136.09443926834     Delta-E=       -0.000000008701 Rises=F Damp=F
 DIIS: error= 8.23D-07 at cycle  18 NSaved=  18.
 NSaved=18 IEnMin=18 EnMin= -1136.09443926834     IErMin=18 ErrMin= 8.23D-07
 ErrMax= 8.23D-07  0.00D+00 EMaxC= 1.00D-01 BMatC= 1.49D-10 BMatP= 2.28D-10
 IDIUse=1 WtCom= 1.00D+00 WtEn= 0.00D+00
 Coeff-Com: -0.523D-05 0.752D-05 0.252D-04 0.264D-04 0.110D-03 0.495D-04
 Coeff-Com: -0.626D-02-0.765D-02 0.336D-01 0.380D-01-0.489D-01-0.198D+00
 Coeff-Com:  0.342D-01 0.215D+00 0.485D+00-0.132D+01 0.360D+00 0.142D+01
 Coeff:     -0.523D-05 0.752D-05 0.252D-04 0.264D-04 0.110D-03 0.495D-04
 Coeff:     -0.626D-02-0.765D-02 0.336D-01 0.380D-01-0.489D-01-0.198D+00
 Coeff:      0.342D-01 0.215D+00 0.485D+00-0.132D+01 0.360D+00 0.142D+01
 Gap=     0.041 Goal=   None    Shift=    0.000
 Gap=     0.032 Goal=   None    Shift=    0.000
 RMSDP=2.10D-05 MaxDP=2.23D-03 DE=-8.70D-09 OVMax= 4.03D-04

 Cycle  19  Pass 1  IDiag  1:
 E= -1136.09443927323     Delta-E=       -0.000000004886 Rises=F Damp=F
 DIIS: error= 6.51D-07 at cycle  19 NSaved=  19.
 NSaved=19 IEnMin=19 EnMin= -1136.09443927323     IErMin=19 ErrMin= 6.51D-07
 ErrMax= 6.51D-07  0.00D+00 EMaxC= 1.00D-01 BMatC= 1.02D-10 BMatP= 1.49D-10
 IDIUse=1 WtCom= 1.00D+00 WtEn= 0.00D+00
 Coeff-Com: -0.105D-04 0.135D-04 0.478D-04 0.236D-05 0.302D-03 0.225D-02
 Coeff-Com:  0.148D-02-0.143D-01-0.300D-02 0.224D-01 0.812D-01-0.569D-01
 Coeff-Com: -0.231D+00-0.135D-01 0.580D+00 0.285D+00-0.142D+01-0.267D+00
 Coeff-Com:  0.204D+01
 Coeff:     -0.105D-04 0.135D-04 0.478D-04 0.236D-05 0.302D-03 0.225D-02
 Coeff:      0.148D-02-0.143D-01-0.300D-02 0.224D-01 0.812D-01-0.569D-01
 Coeff:     -0.231D+00-0.135D-01 0.580D+00 0.285D+00-0.142D+01-0.267D+00
 Coeff:      0.204D+01
 Gap=     0.041 Goal=   None    Shift=    0.000
 Gap=     0.032 Goal=   None    Shift=    0.000
 RMSDP=2.21D-05 MaxDP=2.19D-03 DE=-4.89D-09 OVMax= 5.33D-04

 Cycle  20  Pass 1  IDiag  1:
 E= -1136.09443927743     Delta-E=       -0.000000004199 Rises=F Damp=F
 DIIS: error= 3.28D-07 at cycle  20 NSaved=  20.
 NSaved=20 IEnMin=20 EnMin= -1136.09443927743     IErMin=20 ErrMin= 3.28D-07
 ErrMax= 3.28D-07  0.00D+00 EMaxC= 1.00D-01 BMatC= 2.46D-11 BMatP= 1.02D-10
 IDIUse=1 WtCom= 1.00D+00 WtEn= 0.00D+00
 Coeff-Com:  0.230D-05-0.331D-05-0.227D-04-0.609D-05-0.859D-04-0.559D-03
 Coeff-Com:  0.143D-02 0.423D-02-0.925D-02-0.199D-01-0.513D-02 0.867D-01
 Coeff-Com:  0.267D-01-0.893D-01-0.274D+00 0.155D+00 0.782D+00-0.761D+00
 Coeff-Com: -0.926D+00 0.203D+01
 Coeff:      0.230D-05-0.331D-05-0.227D-04-0.609D-05-0.859D-04-0.559D-03
 Coeff:      0.143D-02 0.423D-02-0.925D-02-0.199D-01-0.513D-02 0.867D-01
 Coeff:      0.267D-01-0.893D-01-0.274D+00 0.155D+00 0.782D+00-0.761D+00
 Coeff:     -0.926D+00 0.203D+01
 Gap=     0.041 Goal=   None    Shift=    0.000
 Gap=     0.032 Goal=   None    Shift=    0.000
 RMSDP=1.49D-05 MaxDP=1.48D-03 DE=-4.20D-09 OVMax= 4.16D-04

 Cycle  21  Pass 1  IDiag  1:
 E= -1136.09443927889     Delta-E=       -0.000000001467 Rises=F Damp=F
 DIIS: error= 1.35D-07 at cycle  21 NSaved=  20.
 NSaved=20 IEnMin=20 EnMin= -1136.09443927889     IErMin=20 ErrMin= 1.35D-07
 ErrMax= 1.35D-07  0.00D+00 EMaxC= 1.00D-01 BMatC= 4.36D-12 BMatP= 2.46D-11
 IDIUse=1 WtCom= 1.00D+00 WtEn= 0.00D+00
 Coeff-Com:  0.437D-06-0.115D-04-0.390D-05-0.482D-04-0.351D-03-0.380D-03
 Coeff-Com:  0.167D-02 0.173D-02 0.184D-03-0.158D-01-0.463D-02 0.452D-01
 Coeff-Com:  0.207D-01-0.896D-01-0.103D+00 0.264D+00 0.141D+00-0.556D+00
 Coeff-Com:  0.144D+00 0.115D+01
 Coeff:      0.437D-06-0.115D-04-0.390D-05-0.482D-04-0.351D-03-0.380D-03
 Coeff:      0.167D-02 0.173D-02 0.184D-03-0.158D-01-0.463D-02 0.452D-01
 Coeff:      0.207D-01-0.896D-01-0.103D+00 0.264D+00 0.141D+00-0.556D+00
 Coeff:      0.144D+00 0.115D+01
 Gap=     0.041 Goal=   None    Shift=    0.000
 Gap=     0.032 Goal=   None    Shift=    0.000
 RMSDP=3.58D-06 MaxDP=2.86D-04 DE=-1.47D-09 OVMax= 1.18D-04

 Cycle  22  Pass 1  IDiag  1:
 E= -1136.09443927901     Delta-E=       -0.000000000112 Rises=F Damp=F
 DIIS: error= 5.27D-08 at cycle  22 NSaved=  20.
 NSaved=20 IEnMin=20 EnMin= -1136.09443927901     IErMin=20 ErrMin= 5.27D-08
 ErrMax= 5.27D-08  0.00D+00 EMaxC= 1.00D-01 BMatC= 5.53D-13 BMatP= 4.36D-12
 IDIUse=1 WtCom= 1.00D+00 WtEn= 0.00D+00
 Coeff-Com: -0.687D-06-0.407D-06-0.371D-05-0.172D-04-0.333D-03-0.468D-03
 Coeff-Com:  0.258D-02 0.238D-02-0.347D-02-0.146D-01 0.743D-02 0.199D-01
 Coeff-Com:  0.213D-01-0.735D-01-0.138D-01 0.126D+00 0.127D-01-0.238D+00
 Coeff-Com:  0.560D-01 0.110D+01
 Coeff:     -0.687D-06-0.407D-06-0.371D-05-0.172D-04-0.333D-03-0.468D-03
 Coeff:      0.258D-02 0.238D-02-0.347D-02-0.146D-01 0.743D-02 0.199D-01
 Coeff:      0.213D-01-0.735D-01-0.138D-01 0.126D+00 0.127D-01-0.238D+00
 Coeff:      0.560D-01 0.110D+01
 Gap=     0.041 Goal=   None    Shift=    0.000
 Gap=     0.032 Goal=   None    Shift=    0.000
 RMSDP=7.58D-07 MaxDP=6.74D-05 DE=-1.12D-10 OVMax= 2.73D-05

 Cycle  23  Pass 1  IDiag  1:
 E= -1136.09443927902     Delta-E=       -0.000000000017 Rises=F Damp=F
 DIIS: error= 2.22D-08 at cycle  23 NSaved=  20.
 NSaved=20 IEnMin=20 EnMin= -1136.09443927902     IErMin=20 ErrMin= 2.22D-08
 ErrMax= 2.22D-08  0.00D+00 EMaxC= 1.00D-01 BMatC= 1.09D-13 BMatP= 5.53D-13
 IDIUse=1 WtCom= 1.00D+00 WtEn= 0.00D+00
 Coeff-Com:  0.204D-05 0.108D-04 0.790D-04 0.111D-03-0.572D-03-0.177D-03
 Coeff-Com:  0.271D-03 0.326D-02-0.836D-03-0.852D-02-0.328D-02 0.223D-01
 Coeff-Com:  0.920D-02-0.467D-01-0.284D-01 0.124D+00-0.471D-01-0.255D+00
 Coeff-Com:  0.764D-01 0.115D+01
 Coeff:      0.204D-05 0.108D-04 0.790D-04 0.111D-03-0.572D-03-0.177D-03
 Coeff:      0.271D-03 0.326D-02-0.836D-03-0.852D-02-0.328D-02 0.223D-01
 Coeff:      0.920D-02-0.467D-01-0.284D-01 0.124D+00-0.471D-01-0.255D+00
 Coeff:      0.764D-01 0.115D+01
 Gap=     0.041 Goal=   None    Shift=    0.000
 Gap=     0.032 Goal=   None    Shift=    0.000
 RMSDP=2.24D-07 MaxDP=1.85D-05 DE=-1.68D-11 OVMax= 7.13D-06

 Cycle  24  Pass 1  IDiag  1:
 E= -1136.09443927901     Delta-E=        0.000000000015 Rises=F Damp=F
 DIIS: error= 1.22D-08 at cycle  24 NSaved=  20.
 NSaved=20 IEnMin=19 EnMin= -1136.09443927902     IErMin=20 ErrMin= 1.22D-08
 ErrMax= 1.22D-08  0.00D+00 EMaxC= 1.00D-01 BMatC= 2.03D-14 BMatP= 1.09D-13
 IDIUse=1 WtCom= 1.00D+00 WtEn= 0.00D+00
 Coeff-Com:  0.129D-05 0.635D-05 0.251D-04 0.791D-04-0.355D-03-0.322D-03
 Coeff-Com:  0.438D-03 0.208D-02-0.144D-02-0.363D-02-0.159D-02 0.830D-02
 Coeff-Com:  0.763D-02-0.232D-01-0.509D-02 0.493D-01-0.256D-01-0.233D+00
 Coeff-Com:  0.123D+00 0.110D+01
 Coeff:      0.129D-05 0.635D-05 0.251D-04 0.791D-04-0.355D-03-0.322D-03
 Coeff:      0.438D-03 0.208D-02-0.144D-02-0.363D-02-0.159D-02 0.830D-02
 Coeff:      0.763D-02-0.232D-01-0.509D-02 0.493D-01-0.256D-01-0.233D+00
 Coeff:      0.123D+00 0.110D+01
 Gap=     0.041 Goal=   None    Shift=    0.000
 Gap=     0.032 Goal=   None    Shift=    0.000
 RMSDP=8.43D-08 MaxDP=6.47D-06 DE= 1.46D-11 OVMax= 2.04D-06

 Cycle  25  Pass 1  IDiag  1:
 E= -1136.09443927901     Delta-E=       -0.000000000005 Rises=F Damp=F
 DIIS: error= 3.47D-09 at cycle  25 NSaved=  20.
 NSaved=20 IEnMin=18 EnMin= -1136.09443927902     IErMin=20 ErrMin= 3.47D-09
 ErrMax= 3.47D-09  0.00D+00 EMaxC= 1.00D-01 BMatC= 2.89D-15 BMatP= 2.03D-14
 IDIUse=1 WtCom= 1.00D+00 WtEn= 0.00D+00
 Large coefficients: NSaved= 20 BigCof=    0.00 CofMax=   10.00 Det=-6.37D-15
 Inversion failed.  Reducing to 19 matrices.
 Large coefficients: NSaved= 19 BigCof=    0.00 CofMax=   10.00 Det=-6.38D-15
 Inversion failed.  Reducing to 18 matrices.
 Large coefficients: NSaved= 18 BigCof=    0.00 CofMax=   10.00 Det=-6.64D-15
 Inversion failed.  Reducing to 17 matrices.
 Large coefficients: NSaved= 17 BigCof=    0.00 CofMax=   10.00 Det=-7.19D-15
 Inversion failed.  Reducing to 16 matrices.
 Large coefficients: NSaved= 16 BigCof=    0.00 CofMax=   10.00 Det=-7.56D-15
 Inversion failed.  Reducing to 15 matrices.
 Coeff-Com: -0.970D-04 0.556D-04 0.407D-03 0.286D-03-0.113D-02-0.483D-03
 Coeff-Com:  0.106D-02 0.469D-02-0.110D-01 0.292D-02 0.238D-01 0.746D-02
 Coeff-Com: -0.162D+00 0.527D-01 0.108D+01
 Coeff:     -0.970D-04 0.556D-04 0.407D-03 0.286D-03-0.113D-02-0.483D-03
 Coeff:      0.106D-02 0.469D-02-0.110D-01 0.292D-02 0.238D-01 0.746D-02
 Coeff:     -0.162D+00 0.527D-01 0.108D+01
 Gap=     0.041 Goal=   None    Shift=    0.000
 Gap=     0.032 Goal=   None    Shift=    0.000
 RMSDP=4.18D-08 MaxDP=3.78D-06 DE=-4.55D-12 OVMax= 1.04D-06

 Cycle  26  Pass 1  IDiag  1:
 E= -1136.09443927901     Delta-E=        0.000000000005 Rises=F Damp=F
 DIIS: error= 1.92D-09 at cycle  26 NSaved=  16.
 NSaved=16 IEnMin=13 EnMin= -1136.09443927902     IErMin=16 ErrMin= 1.92D-09
 ErrMax= 1.92D-09  0.00D+00 EMaxC= 1.00D-01 BMatC= 6.79D-16 BMatP= 2.89D-15
 IDIUse=1 WtCom= 1.00D+00 WtEn= 0.00D+00
 Large coefficients: NSaved= 16 BigCof=    0.00 CofMax=   10.00 Det=-1.14D-15
 Inversion failed.  Reducing to 15 matrices.
 Coeff-Com:  0.598D-04-0.368D-04-0.644D-04-0.226D-03 0.438D-03 0.294D-03
 Coeff-Com:  0.715D-03-0.360D-02 0.111D-02 0.908D-02 0.432D-02-0.362D-01
 Coeff-Com: -0.103D+00 0.154D+00 0.974D+00
 Coeff:      0.598D-04-0.368D-04-0.644D-04-0.226D-03 0.438D-03 0.294D-03
 Coeff:      0.715D-03-0.360D-02 0.111D-02 0.908D-02 0.432D-02-0.362D-01
 Coeff:     -0.103D+00 0.154D+00 0.974D+00
 Gap=     0.041 Goal=   None    Shift=    0.000
 Gap=     0.032 Goal=   None    Shift=    0.000
 RMSDP=1.66D-08 MaxDP=1.08D-06 DE= 4.55D-12 OVMax= 3.09D-07

 Cycle  27  Pass 1  IDiag  1:
 E= -1136.09443927901     Delta-E=       -0.000000000001 Rises=F Damp=F
 DIIS: error= 1.06D-09 at cycle  27 NSaved=  16.
 NSaved=16 IEnMin=12 EnMin= -1136.09443927902     IErMin=16 ErrMin= 1.06D-09
 ErrMax= 1.06D-09  0.00D+00 EMaxC= 1.00D-01 BMatC= 3.18D-16 BMatP= 6.79D-16
 IDIUse=1 WtCom= 1.00D+00 WtEn= 0.00D+00
 Large coefficients: NSaved= 16 BigCof=    0.00 CofMax=   10.00 Det=-5.09D-16
 Inversion failed.  Reducing to 15 matrices.
 Coeff-Com: -0.412D-04 0.499D-04 0.126D-03-0.366D-03-0.150D-03 0.358D-03
 Coeff-Com:  0.210D-02-0.263D-02-0.354D-02 0.108D-01 0.277D-01-0.776D-01
 Coeff-Com: -0.205D+00 0.354D+00 0.894D+00
 Coeff:     -0.412D-04 0.499D-04 0.126D-03-0.366D-03-0.150D-03 0.358D-03
 Coeff:      0.210D-02-0.263D-02-0.354D-02 0.108D-01 0.277D-01-0.776D-01
 Coeff:     -0.205D+00 0.354D+00 0.894D+00
 Gap=     0.041 Goal=   None    Shift=    0.000
 Gap=     0.032 Goal=   None    Shift=    0.000
 RMSDP=1.15D-08 MaxDP=7.73D-07 DE=-9.09D-13 OVMax= 2.83D-07

 Cycle  28  Pass 1  IDiag  1:
 E= -1136.09443927901     Delta-E=       -0.000000000001 Rises=F Damp=F
 DIIS: error= 3.14D-10 at cycle  28 NSaved=  16.
 NSaved=16 IEnMin=11 EnMin= -1136.09443927902     IErMin=16 ErrMin= 3.14D-10
 ErrMax= 3.14D-10  0.00D+00 EMaxC= 1.00D-01 BMatC= 4.58D-17 BMatP= 3.18D-16
 IDIUse=1 WtCom= 1.00D+00 WtEn= 0.00D+00
 Large coefficients: NSaved= 16 BigCof=    0.00 CofMax=   10.00 Det=-1.27D-16
 Inversion failed.  Reducing to 15 matrices.
 Coeff-Com:  0.276D-04 0.778D-04-0.970D-04-0.244D-03-0.593D-04 0.123D-02
 Coeff-Com: -0.847D-03-0.322D-02 0.248D-02 0.149D-01 0.377D-02-0.101D+00
 Coeff-Com: -0.120D+00 0.238D+00 0.965D+00
 Coeff:      0.276D-04 0.778D-04-0.970D-04-0.244D-03-0.593D-04 0.123D-02
 Coeff:     -0.847D-03-0.322D-02 0.248D-02 0.149D-01 0.377D-02-0.101D+00
 Coeff:     -0.120D+00 0.238D+00 0.965D+00
 Gap=     0.041 Goal=   None    Shift=    0.000
 Gap=     0.032 Goal=   None    Shift=    0.000
 RMSDP=9.69D-09 MaxDP=6.90D-07 DE=-1.36D-12 OVMax= 7.75D-08

 SCF Done:  E(UB3LYP) =  -1136.09443928     A.U. after   28 cycles
            NFock= 28  Conv=0.97D-08     -V/T= 2.0025
 <Sx>= 0.0000 <Sy>= 0.0000 <Sz>= 0.5000 <S**2>= 0.7696 S= 0.5097
 <L.S>= 0.000000000000E+00
 KE= 1.133213689361D+03 PE=-3.461818597684D+03 EE= 8.262160690153D+02
 Annihilation of the first spin contaminant:
 S**2 before annihilation     0.7696,   after     0.7502
 Leave Link  502 at Mon Nov 13 15:57:15 2023, MaxMem=  1879048192 cpu:             268.9 elap:              22.9
 (Enter /home/sekinelabo/g16/l601.exe)
 Copying SCF densities to generalized density rwf, IOpCl= 1 IROHF=0.

 **********************************************************************

            Population analysis using the SCF Density.

 **********************************************************************

 Orbital symmetries:
 Alpha Orbitals:
       Occupied  (A) (A) (A) (A) (A) (A) (A) (A) (A) (A) (A) (A)
                 (A) (A) (A) (A) (A) (A) (A) (A) (A) (A) (A) (A)
                 (A) (A) (A) (A) (A) (A) (A) (A) (A) (A) (A) (A)
                 (A) (A) (A)
       Virtual   (A) (A) (A) (A) (A) (A) (A) (A) (A) (A) (A) (A)
                 (A) (A) (A) (A) (A) (A) (A) (A) (A) (A) (A) (A)
                 (A) (A) (A) (A) (A) (A) (A) (A) (A) (A) (A) (A)
                 (A) (A) (A) (A) (A) (A) (A) (A) (A) (A) (A) (A)
                 (A) (A) (A) (A) (A) (A) (A) (A) (A) (A) (A) (A)
                 (A) (A) (A) (A) (A) (A) (A) (A) (A) (A) (A) (A)
                 (A) (A) (A) (A) (A) (A) (A) (A) (A) (A) (A) (A)
                 (A) (A) (A) (A) (A) (A) (A) (A) (A) (A) (A) (A)
                 (A) (A) (A) (A) (A) (A) (A) (A) (A) (A) (A) (A)
                 (A) (A) (A) (A) (A) (A) (A) (A) (A) (A) (A) (A)
                 (A) (A) (A) (A) (A) (A) (A) (A) (A) (A) (A) (A)
                 (A) (A) (A) (A) (A) (A) (A) (A) (A) (A) (A) (A)
                 (A) (A) (A) (A) (A) (A) (A) (A) (A) (A) (A) (A)
                 (A) (A) (A) (A) (A) (A) (A) (A) (A) (A) (A) (A)
                 (A) (A) (A)
 Beta  Orbitals:
       Occupied  (A) (A) (A) (A) (A) (A) (A) (A) (A) (A) (A) (A)
                 (A) (A) (A) (A) (A) (A) (A) (A) (A) (A) (A) (A)
                 (A) (A) (A) (A) (A) (A) (A) (A) (A) (A) (A) (A)
                 (A) (A)
       Virtual   (A) (A) (A) (A) (A) (A) (A) (A) (A) (A) (A) (A)
                 (A) (A) (A) (A) (A) (A) (A) (A) (A) (A) (A) (A)
                 (A) (A) (A) (A) (A) (A) (A) (A) (A) (A) (A) (A)
                 (A) (A) (A) (A) (A) (A) (A) (A) (A) (A) (A) (A)
                 (A) (A) (A) (A) (A) (A) (A) (A) (A) (A) (A) (A)
                 (A) (A) (A) (A) (A) (A) (A) (A) (A) (A) (A) (A)
                 (A) (A) (A) (A) (A) (A) (A) (A) (A) (A) (A) (A)
                 (A) (A) (A) (A) (A) (A) (A) (A) (A) (A) (A) (A)
                 (A) (A) (A) (A) (A) (A) (A) (A) (A) (A) (A) (A)
                 (A) (A) (A) (A) (A) (A) (A) (A) (A) (A) (A) (A)
                 (A) (A) (A) (A) (A) (A) (A) (A) (A) (A) (A) (A)
                 (A) (A) (A) (A) (A) (A) (A) (A) (A) (A) (A) (A)
                 (A) (A) (A) (A) (A) (A) (A) (A) (A) (A) (A) (A)
                 (A) (A) (A) (A) (A) (A) (A) (A) (A) (A) (A) (A)
                 (A) (A) (A) (A)
 The electronic state is 2-A.
 Alpha  occ. eigenvalues --  -38.45361 -38.44947 -38.44376 -38.43974 -38.43813
 Alpha  occ. eigenvalues --  -38.43680 -38.42729  -2.21234  -2.20924  -2.20381
 Alpha  occ. eigenvalues --   -2.19981  -2.19870  -2.19679  -2.18798  -1.14930
 Alpha  occ. eigenvalues --   -1.14907  -1.14868  -1.14655  -1.14621  -1.14553
 Alpha  occ. eigenvalues --   -1.14129  -1.13985  -1.13968  -1.13765  -1.13688
 Alpha  occ. eigenvalues --   -1.13614  -1.13521  -1.13487  -1.13469  -1.13339
 Alpha  occ. eigenvalues --   -1.13306  -1.13290  -1.12497  -1.12441  -1.12412
 Alpha  occ. eigenvalues --   -0.19971  -0.14780  -0.11796  -0.11212
 Alpha virt. eigenvalues --   -0.07090  -0.05097  -0.04003  -0.03360  -0.02784
 Alpha virt. eigenvalues --   -0.02533  -0.02155  -0.00785  -0.00435   0.00058
 Alpha virt. eigenvalues --    0.00224   0.00368   0.00479   0.00754   0.00930
 Alpha virt. eigenvalues --    0.00979   0.01046   0.01172   0.01358   0.01413
 Alpha virt. eigenvalues --    0.01518   0.01816   0.01855   0.01983   0.02067
 Alpha virt. eigenvalues --    0.02348   0.02440   0.02566   0.02646   0.02726
 Alpha virt. eigenvalues --    0.02837   0.02876   0.02978   0.03033   0.03142
 Alpha virt. eigenvalues --    0.03209   0.03342   0.03509   0.03637   0.03893
 Alpha virt. eigenvalues --    0.04168   0.04330   0.04454   0.04752   0.05057
 Alpha virt. eigenvalues --    0.05400   0.05457   0.05544   0.05893   0.06278
 Alpha virt. eigenvalues --    0.06460   0.06553   0.06719   0.07007   0.07356
 Alpha virt. eigenvalues --    0.07562   0.08088   0.08299   0.08450   0.08656
 Alpha virt. eigenvalues --    0.09066   0.09719   0.10475   0.10949   0.11318
 Alpha virt. eigenvalues --    0.11992   0.12376   0.12479   0.13352   0.13614
 Alpha virt. eigenvalues --    0.13826   0.14004   0.14361   0.14570   0.14857
 Alpha virt. eigenvalues --    0.15460   0.16090   0.17677   0.18836   0.19445
 Alpha virt. eigenvalues --    0.21955   0.25293   0.27160   0.28209   0.28947
 Alpha virt. eigenvalues --    0.29293   0.30216   0.30927   0.32841   0.33501
 Alpha virt. eigenvalues --    0.34212   0.35330   0.35941   0.37422   0.37813
 Alpha virt. eigenvalues --    0.39226   0.39428   0.39999   0.41782   0.42273
 Alpha virt. eigenvalues --    0.43138   0.43884   0.44501   0.44815   0.44909
 Alpha virt. eigenvalues --    0.45446   0.45655   0.45857   0.46688   0.47325
 Alpha virt. eigenvalues --    0.47621   0.48126   0.48640   0.49012   0.49554
 Alpha virt. eigenvalues --    0.50422   0.51098   0.51928   0.52813   0.53842
 Alpha virt. eigenvalues --    0.53975   0.55210   0.56235   0.57317   0.59019
 Alpha virt. eigenvalues --    0.65567   0.67309   0.69176   0.70308   0.70977
 Alpha virt. eigenvalues --    0.71962   0.73693   0.74385   0.75643   0.79375
 Alpha virt. eigenvalues --    0.81933   2.08858   2.13667   2.17953   2.22225
 Alpha virt. eigenvalues --    2.24058   2.31070   2.35482   4.40487   4.40717
 Alpha virt. eigenvalues --    4.40966   4.42320   4.42642   4.43160   4.43989
 Alpha virt. eigenvalues --    4.44436   4.46085   4.46824   4.49628   4.53920
 Alpha virt. eigenvalues --    4.56903   4.58912   4.64284   4.67775   4.70529
 Alpha virt. eigenvalues --    4.70848   4.75600   4.76390   4.77590  96.29510
 Alpha virt. eigenvalues --   96.35914  96.42001  96.47540  96.50264  96.59533
 Alpha virt. eigenvalues --   96.65446
  Beta  occ. eigenvalues --  -38.45362 -38.44936 -38.44278 -38.43947 -38.43779
  Beta  occ. eigenvalues --  -38.43639 -38.42703  -2.21238  -2.20911  -2.20203
  Beta  occ. eigenvalues --   -2.19925  -2.19821  -2.19606  -2.18755  -1.14921
  Beta  occ. eigenvalues --   -1.14911  -1.14867  -1.14651  -1.14555  -1.14553
  Beta  occ. eigenvalues --   -1.14016  -1.13858  -1.13846  -1.13720  -1.13645
  Beta  occ. eigenvalues --   -1.13542  -1.13490  -1.13448  -1.13436  -1.13296
  Beta  occ. eigenvalues --   -1.13262  -1.13223  -1.12474  -1.12394  -1.12361
  Beta  occ. eigenvalues --   -0.19226  -0.14464  -0.10959
  Beta virt. eigenvalues --   -0.07791  -0.06913  -0.04795  -0.03398  -0.03078
  Beta virt. eigenvalues --   -0.02527  -0.02078  -0.01395  -0.00694  -0.00159
  Beta virt. eigenvalues --    0.00137   0.00267   0.00407   0.00628   0.00800
  Beta virt. eigenvalues --    0.00991   0.01022   0.01137   0.01306   0.01433
  Beta virt. eigenvalues --    0.01521   0.01671   0.01884   0.01917   0.02077
  Beta virt. eigenvalues --    0.02130   0.02406   0.02467   0.02630   0.02675
  Beta virt. eigenvalues --    0.02751   0.02835   0.02912   0.03048   0.03125
  Beta virt. eigenvalues --    0.03211   0.03286   0.03397   0.03588   0.03802
  Beta virt. eigenvalues --    0.04082   0.04326   0.04426   0.04609   0.04789
  Beta virt. eigenvalues --    0.05190   0.05519   0.05642   0.05690   0.05932
  Beta virt. eigenvalues --    0.06333   0.06462   0.06655   0.06800   0.07111
  Beta virt. eigenvalues --    0.07458   0.07696   0.08217   0.08445   0.08626
  Beta virt. eigenvalues --    0.08805   0.09230   0.10035   0.10697   0.11237
  Beta virt. eigenvalues --    0.11562   0.12199   0.12495   0.12838   0.13501
  Beta virt. eigenvalues --    0.13799   0.14005   0.14140   0.14460   0.14790
  Beta virt. eigenvalues --    0.15159   0.15808   0.16367   0.17912   0.19021
  Beta virt. eigenvalues --    0.19857   0.22233   0.25653   0.27416   0.28676
  Beta virt. eigenvalues --    0.29414   0.29640   0.30394   0.31038   0.33264
  Beta virt. eigenvalues --    0.33665   0.34560   0.35619   0.36266   0.37679
  Beta virt. eigenvalues --    0.37979   0.39587   0.39887   0.40373   0.41981
  Beta virt. eigenvalues --    0.42464   0.43290   0.43943   0.44598   0.44951
  Beta virt. eigenvalues --    0.45138   0.45545   0.45861   0.46051   0.46885
  Beta virt. eigenvalues --    0.47544   0.47825   0.48305   0.48785   0.49288
  Beta virt. eigenvalues --    0.49800   0.50511   0.51234   0.52144   0.53077
  Beta virt. eigenvalues --    0.53980   0.54247   0.55452   0.56437   0.57612
  Beta virt. eigenvalues --    0.59356   0.65729   0.67493   0.69297   0.70593
  Beta virt. eigenvalues --    0.71087   0.72069   0.73819   0.74536   0.75747
  Beta virt. eigenvalues --    0.79628   0.82104   2.08954   2.13763   2.18034
  Beta virt. eigenvalues --    2.22525   2.24131   2.31205   2.35591   4.40551
  Beta virt. eigenvalues --    4.40756   4.41040   4.42367   4.42703   4.43252
  Beta virt. eigenvalues --    4.44027   4.44493   4.46134   4.46866   4.49705
  Beta virt. eigenvalues --    4.54005   4.56971   4.58960   4.64308   4.67868
  Beta virt. eigenvalues --    4.70587   4.70939   4.75634   4.76437   4.77621
  Beta virt. eigenvalues --   96.29546  96.35948  96.42027  96.47638  96.50290
  Beta virt. eigenvalues --   96.59585  96.65483
          Condensed to atoms (all electrons):
               1          2          3          4          5          6
     1  Na  18.618329  -0.709358  -0.544949  -3.092188  -2.303979   2.732187
     2  Na  -0.709358  13.268282  -2.291630   2.613198  -2.409397   0.100762
     3  Na  -0.544949  -2.291630  15.469173  -2.765101   1.263536   0.356276
     4  Na  -3.092188   2.613198  -2.765101  15.382327  -2.452709  -0.927437
     5  Na  -2.303979  -2.409397   1.263536  -2.452709  17.478191  -1.570632
     6  Na   2.732187   0.100762   0.356276  -0.927437  -1.570632  12.216606
     7  Na  -2.875927   0.419773  -0.843224   1.677851   1.135821  -1.523532
               7
     1  Na  -2.875927
     2  Na   0.419773
     3  Na  -0.843224
     4  Na   1.677851
     5  Na   1.135821
     6  Na  -1.523532
     7  Na  12.588412
          Atomic-Atomic Spin Densities.
               1          2          3          4          5          6
     1  Na   2.735104  -0.142308  -0.290651  -0.428914  -1.460791   0.582501
     2  Na  -0.142308   0.154530   0.023135  -0.127593   0.453239  -0.055592
     3  Na  -0.290651   0.023135  -0.274460   0.303190   0.090611  -0.239566
     4  Na  -0.428914  -0.127593   0.303190  -0.104114   0.574252  -0.027279
     5  Na  -1.460791   0.453239   0.090611   0.574252   0.338444  -0.259072
     6  Na   0.582501  -0.055592  -0.239566  -0.027279  -0.259072  -0.067138
     7  Na  -0.739624  -0.032885   0.405543  -0.027936   0.513846  -0.068842
               7
     1  Na  -0.739624
     2  Na  -0.032885
     3  Na   0.405543
     4  Na  -0.027936
     5  Na   0.513846
     6  Na  -0.068842
     7  Na   0.127108
 Mulliken charges and spin densities:
               1          2
     1  Na  -0.824114   0.255319
     2  Na   0.008369   0.272526
     3  Na   0.355920   0.017801
     4  Na   0.564060   0.161605
     5  Na  -0.140831   0.250528
     6  Na  -0.384231  -0.134989
     7  Na   0.420826   0.177209
 Sum of Mulliken charges =  -0.00000   1.00000
 Mulliken charges and spin densities with hydrogens summed into heavy atoms:
               1          2
     1  Na  -0.824114   0.255319
     2  Na   0.008369   0.272526
     3  Na   0.355920   0.017801
     4  Na   0.564060   0.161605
     5  Na  -0.140831   0.250528
     6  Na  -0.384231  -0.134989
     7  Na   0.420826   0.177209
 Electronic spatial extent (au):  <R**2>=           2137.1254
 Charge=             -0.0000 electrons
 Dipole moment (field-independent basis, Debye):
    X=             -0.1806    Y=              0.0667    Z=              0.3841  Tot=              0.4297
 Quadrupole moment (field-independent basis, Debye-Ang):
   XX=            -46.7224   YY=            -78.1507   ZZ=            -69.5094
   XY=             -1.2732   XZ=             -1.6905   YZ=              0.5339
 Traceless Quadrupole moment (field-independent basis, Debye-Ang):
   XX=             18.0718   YY=            -13.3565   ZZ=             -4.7152
   XY=             -1.2732   XZ=             -1.6905   YZ=              0.5339
 Octapole moment (field-independent basis, Debye-Ang**2):
  XXX=             -4.8424  YYY=              0.8201  ZZZ=             10.0426  XYY=             -6.6174
  XXY=              5.5794  XXZ=              2.4551  XZZ=              0.9373  YZZ=             -1.9454
  YYZ=             -4.9504  XYZ=             -7.8166
 Hexadecapole moment (field-independent basis, Debye-Ang**3):
 XXXX=          -1609.6150 YYYY=          -1088.8860 ZZZZ=           -741.8317 XXXY=            -92.1268
 XXXZ=            -29.4993 YYYX=             19.6903 YYYZ=              6.5512 ZZZX=             -6.3901
 ZZZY=            -14.0606 XXYY=           -464.2570 XXZZ=           -470.7913 YYZZ=           -302.5926
 XXYZ=             11.3451 YYXZ=             -8.6087 ZZXY=             13.5307
 N-N= 3.662944000287D+02 E-N=-3.461818597597D+03  KE= 1.133213689361D+03
                          Isotropic Fermi Contact Couplings
        Atom                 a.u.       MegaHertz       Gauss      10(-4) cm-1
     1  Na(23)             0.07134      84.40196      30.11672      28.15346
     2  Na(23)             0.40534     479.53253     171.10913     159.95484
     3  Na(23)            -0.02514     -29.73945     -10.61177      -9.92001
     4  Na(23)             0.16046     189.82847      67.73552      63.31996
     5  Na(23)             0.05177      61.25048      21.85569      20.43096
     6  Na(23)            -0.02825     -33.42176     -11.92572     -11.14830
     7  Na(23)             0.10869     128.58128      45.88100      42.89010
 --------------------------------------------------------
       Center         ----  Spin Dipole Couplings  ----
                      3XX-RR        3YY-RR        3ZZ-RR
 --------------------------------------------------------
     1   Atom       -0.017160     -0.029489      0.046650
     2   Atom        0.002152      0.012096     -0.014248
     3   Atom       -0.024733     -0.028738      0.053471
     4   Atom       -0.010124      0.010172     -0.000048
     5   Atom       -0.030798     -0.018067      0.048865
     6   Atom        0.000161     -0.008567      0.008406
     7   Atom        0.000987     -0.004977      0.003990
 --------------------------------------------------------
                        XY            XZ            YZ
 --------------------------------------------------------
     1   Atom        0.009965     -0.009415     -0.008772
     2   Atom       -0.010214      0.001858      0.000923
     3   Atom        0.001644     -0.014762     -0.017347
     4   Atom        0.003881      0.006251      0.015131
     5   Atom       -0.001630     -0.001426     -0.021794
     6   Atom        0.004699      0.012196      0.011590
     7   Atom        0.002857     -0.004918     -0.004491
 --------------------------------------------------------


 ---------------------------------------------------------------------------------
              Anisotropic Spin Dipole Couplings in Principal Axis System
 ---------------------------------------------------------------------------------

       Atom             a.u.   MegaHertz   Gauss  10(-4) cm-1        Axes

              Baa    -0.0352    -4.966    -1.772    -1.657 -0.4673  0.8831  0.0409
     1 Na(23) Bbb    -0.0142    -1.999    -0.713    -0.667  0.8699  0.4510  0.1998
              Bcc     0.0493     6.965     2.485     2.323 -0.1580 -0.1289  0.9790
 
              Baa    -0.0147    -2.070    -0.739    -0.690 -0.1679 -0.0979  0.9809
     2 Na(23) Bbb    -0.0038    -0.540    -0.193    -0.180  0.8308  0.5216  0.1943
              Bcc     0.0185     2.610     0.931     0.871 -0.5307  0.8475 -0.0062
 
              Baa    -0.0326    -4.599    -1.641    -1.534  0.2369  0.9437  0.2309
     3 Na(23) Bbb    -0.0270    -3.814    -1.361    -1.272  0.9560 -0.2688  0.1174
              Bcc     0.0596     8.413     3.002     2.806 -0.1729 -0.1929  0.9659
 
              Baa    -0.0140    -1.978    -0.706    -0.660  0.7322  0.2730 -0.6240
     4 Na(23) Bbb    -0.0085    -1.194    -0.426    -0.398  0.6493 -0.5564  0.5185
              Bcc     0.0225     3.172     1.132     1.058  0.2056  0.7848  0.5847
 
              Baa    -0.0314    -4.430    -1.581    -1.478  0.9609  0.2624  0.0884
     5 Na(23) Bbb    -0.0240    -3.385    -1.208    -1.129 -0.2767  0.9221  0.2705
              Bcc     0.0553     7.815     2.789     2.607 -0.0105 -0.2844  0.9587
 
              Baa    -0.0146    -2.068    -0.738    -0.690  0.1461  0.8506 -0.5051
     6 Na(23) Bbb    -0.0074    -1.044    -0.372    -0.348  0.8466 -0.3717 -0.3810
              Bcc     0.0220     3.111     1.110     1.038  0.5118  0.3719  0.7744
 
              Baa    -0.0069    -0.981    -0.350    -0.327 -0.1370  0.9364  0.3230
     7 Na(23) Bbb    -0.0026    -0.371    -0.132    -0.124  0.8236 -0.0735  0.5624
              Bcc     0.0096     1.351     0.482     0.451 -0.5503 -0.3431  0.7612
 

 ---------------------------------------------------------------------------------

 No NMR shielding tensors so no spin-rotation constants.
 Leave Link  601 at Mon Nov 13 15:57:16 2023, MaxMem=  1879048192 cpu:               2.6 elap:               0.2
 (Enter /home/sekinelabo/g16/l701.exe)
 ... and contract with generalized density number  0.
 Compute integral first derivatives.
 Leave Link  701 at Mon Nov 13 15:57:16 2023, MaxMem=  1879048192 cpu:               1.7 elap:               0.1
 (Enter /home/sekinelabo/g16/l702.exe)
 L702 exits ... SP integral derivatives will be done elsewhere.
 Leave Link  702 at Mon Nov 13 15:57:16 2023, MaxMem=  1879048192 cpu:               0.4 elap:               0.0
 (Enter /home/sekinelabo/g16/l703.exe)
 Integral derivatives from FoFJK, PRISM(SPDF).
 Compute integral first derivatives, UseDBF=F ICtDFT=           0.
 Calling FoFJK, ICntrl=      2127 FMM=F ISym2X=0 I1Cent= 0 IOpClX= 1 NMat=1 NMatS=1 NMatT=0.
 FoFJK:  IHMeth= 1 ICntrl=    2127 DoSepK=F KAlg= 0 I1Cent=           0 FoldK=F
 IRaf=         0 NMat=       1 IRICut=       1 DoRegI=T DoRafI=F ISym2E= 0 IDoP0=0 IntGTp=1.
 FoFCou: FMM=F IPFlag=           0 FMFlag=      100000 FMFlg1=         800
         NFxFlg=           0 DoJE=F BraDBF=F KetDBF=F FulRan=T
         wScrn=  0.000000 ICntrl=      2127 IOpCl=  1 I1Cent=           0 NGrid=           0
         NMat0=    1 NMatS0=      1 NMatT0=    0 NMatD0=    1 NMtDS0=    0 NMtDT0=    0
 Symmetry not used in FoFCou.
 Leave Link  703 at Mon Nov 13 15:57:18 2023, MaxMem=  1879048192 cpu:              36.6 elap:               2.3
 (Enter /home/sekinelabo/g16/l716.exe)
 Dipole        =-7.10699771D-02 2.62285707D-02 1.51130844D-01
 ***** Axes restored to original set *****
 -------------------------------------------------------------------
 Center     Atomic                   Forces (Hartrees/Bohr)
 Number     Number              X              Y              Z
 -------------------------------------------------------------------
      1       11          -0.004096168   -0.010891180   -0.009648616
      2       11          -0.002852045   -0.005625280    0.012403209
      3       11           0.009970386   -0.007141285    0.002221023
      4       11           0.004720295    0.012876336   -0.007939416
      5       11          -0.002391291    0.015419429    0.002484153
      6       11          -0.002768004    0.003653445    0.001895743
      7       11          -0.002583173   -0.008291465   -0.001416095
 -------------------------------------------------------------------
 Cartesian Forces:  Max     0.015419429 RMS     0.007496801
 Z-matrix is all fixed cartesians, so copy forces.
 Force constants in Cartesian coordinates: 
                1             2             3             4             5 
      1  0.161012D+00
      2  0.103065D-01  0.153237D+00
      3  0.678414D-02  0.135259D-01  0.148539D+00
      4 -0.185691D-01 -0.288378D-02 -0.842573D-02  0.663049D-01
      5 -0.527486D-02 -0.151747D-01 -0.162390D-01 -0.769144D-02  0.509432D-01
      6  0.268795D-02  0.648422D-02 -0.480575D-01 -0.123827D-01 -0.187596D-01
      7 -0.432490D-01  0.821498D-02 -0.108094D-02 -0.302848D-01  0.103617D-01
      8 -0.156307D-01 -0.218947D-01 -0.302353D-02  0.306761D-02 -0.968752D-02
      9 -0.211691D-01  0.709573D-02 -0.308998D-01  0.302261D-01 -0.111425D-02
     10 -0.306132D-01 -0.976677D-02  0.784939D-02  0.510968D-02 -0.407448D-02
     11 -0.131904D-01 -0.430123D-01  0.144405D-01 -0.457951D-02  0.159579D-02
     12 -0.941033D-02 -0.112531D-01 -0.163986D-01  0.660381D-02  0.105494D-01
     13 -0.275727D-01 -0.491827D-02 -0.471614D-02 -0.213537D-01  0.747147D-02
     14  0.695935D-02 -0.402855D-01 -0.105392D-01  0.666635D-02 -0.311256D-01
     15  0.435065D-02 -0.217578D-01 -0.226980D-01 -0.454452D-02  0.293410D-01
     16 -0.326725D-02  0.622550D-02  0.308059D-02 -0.125800D-02 -0.534004D-03
     17  0.612664D-02  0.339214D-02  0.941830D-03  0.596040D-02  0.252212D-02
     18  0.388742D-02  0.246880D-03  0.703453D-03 -0.396001D-02 -0.149924D-02
     19 -0.377410D-01 -0.717816D-02 -0.349132D-02  0.509549D-04 -0.258364D-03
     20  0.107035D-01 -0.362623D-01  0.893433D-03 -0.539637D-03  0.926737D-03
     21  0.128693D-01  0.565816D-02 -0.311888D-01 -0.751692D-02 -0.227832D-02
                6             7             8             9            10 
      6  0.100288D+00
      7 -0.167559D-04  0.984032D-01
      8  0.813645D-02 -0.211617D-01  0.557182D-01
      9 -0.247022D-01 -0.188008D-02 -0.170198D-01  0.577632D-01
     10  0.144460D-02 -0.191813D-01  0.232798D-01 -0.974933D-02  0.756114D-01
     11  0.351557D-02 -0.355903D-02 -0.283899D-01  0.170928D-01  0.674872D-02
     12 -0.636604D-02  0.798599D-02  0.159545D-01 -0.167129D-01 -0.166693D-01
     13  0.816954D-02 -0.541230D-02  0.116228D-01  0.190407D-02 -0.321728D-01
     14  0.103159D-02  0.516682D-02 -0.280543D-03 -0.372203D-02 -0.108950D-01
     15 -0.229305D-01 -0.226122D-02 -0.100006D-02  0.743388D-02  0.112089D-01
     16  0.844321D-04 -0.221729D-04 -0.780795D-05 -0.442143D-05 -0.449628D-03
     17 -0.426817D-03  0.946705D-04  0.481680D-04  0.166631D-04  0.135115D-02
     18  0.463910D-03 -0.417928D-04  0.102835D-03  0.148420D-03  0.460388D-02
     19  0.129299D-04 -0.253776D-03 -0.117006D-02  0.672853D-03  0.169576D-02
     20  0.185778D-04  0.882596D-03  0.448624D-02 -0.234917D-02 -0.664346D-02
     21  0.130431D-02 -0.270521D-02 -0.315046D-02  0.696937D-02  0.131187D-02
               11            12            13            14            15 
     11  0.818089D-01
     12 -0.261105D-01  0.623698D-01
     13  0.162226D-01  0.118703D-01  0.117568D+00
     14 -0.182606D-01  0.980731D-02 -0.599393D-02  0.117647D+00
     15 -0.112043D-01 -0.308238D-01 -0.990313D-02  0.117268D-01  0.879301D-01
     16 -0.441162D-03 -0.568658D-03 -0.343742D-01  0.443234D-02  0.413501D-02
     17  0.154800D-02  0.169269D-02 -0.179780D-01 -0.247537D-01 -0.574845D-02
     18  0.276337D-02  0.577031D-02 -0.405144D-02 -0.659144D-02 -0.199668D-01
     19 -0.120119D-02  0.188197D-03  0.331789D-02 -0.633594D-02 -0.298567D-02
     20  0.470999D-02 -0.640367D-03 -0.642668D-02 -0.294076D-02 -0.135709D-02
     21 -0.497482D-03  0.216121D-02 -0.327317D-02 -0.171300D-02  0.105503D-02
               16            17            18            19            20 
     16  0.558385D-01
     17 -0.632738D-02  0.472635D-01
     18 -0.672821D-02  0.174375D-01  0.197572D-01
     19 -0.164672D-01  0.107725D-01  0.629015D-02  0.493974D-01
     20 -0.334749D-02 -0.300202D-01 -0.124599D-01  0.537121D-02  0.591003D-01
     21  0.125023D-05 -0.139134D-01 -0.687651D-02 -0.687148D-03  0.158945D-01
               21 
     21  0.265754D-01
 Leave Link  716 at Mon Nov 13 15:57:18 2023, MaxMem=  1879048192 cpu:               0.5 elap:               0.0
 (Enter /home/sekinelabo/g16/l103.exe)

 GradGradGradGradGradGradGradGradGradGradGradGradGradGradGradGradGradGrad
 Berny optimization.
 Search for a local minimum.
 Step number   1 out of a maximum of    2
 All quantities printed in internal units (Hartrees-Bohrs-Radians)
 Second derivative matrix not updated -- first step.
 ITU=  0
     Eigenvalues ---    0.01476   0.03537   0.03997   0.04967   0.06572
     Eigenvalues ---    0.08654   0.10278   0.11503   0.12196   0.13988
     Eigenvalues ---    0.14687   0.16180   0.18660   0.20291   0.22063
 Quadratic step=3.398D-01 exceeds max=3.000D-01 adjusted using Lamda=-9.117D-03.
 Angle between NR and scaled steps=   5.44 degrees.
 Angle between quadratic step and forces=  21.89 degrees.
 Linear search not attempted -- first point.
 B after Tr=     0.000000    0.000000    0.000000
         Rot=    1.000000   -0.000000   -0.000000   -0.000000 Ang=   0.00 deg.
 Variable       Old X    -DE/DX   Delta X   Delta X   Delta X     New X
                                 (Linear)    (Quad)   (Total)
    X1        6.75814  -0.00410   0.00000  -0.00461  -0.00461   6.75353
    Y1        1.39131  -0.01089   0.00000  -0.05171  -0.05171   1.33960
    Z1        0.79791  -0.00965   0.00000  -0.04763  -0.04763   0.75028
    X2        7.60557  -0.00285   0.00000  -0.01056  -0.01056   7.59501
    Y2        1.93101  -0.00563   0.00000  -0.06007  -0.06007   1.87094
    Z2        6.37664   0.01240   0.00000   0.08590   0.08590   6.46254
    X3       12.02856   0.00997   0.00000   0.09886   0.09886  12.12742
    Y3        1.43633  -0.00714   0.00000  -0.06578  -0.06578   1.37055
    Z3        2.86401   0.00222   0.00000   0.00374   0.00374   2.86775
    X4       10.06750   0.00472   0.00000   0.06597   0.06597  10.13347
    Y4        5.91546   0.01288   0.00000   0.11448   0.11448   6.02994
    Z4        0.00000  -0.00794   0.00000  -0.05905  -0.05905  -0.05905
    X5        5.52818  -0.00239   0.00000  -0.01711  -0.01711   5.51107
    Y5        6.27800   0.01542   0.00000   0.11523   0.11523   6.39323
    Z5        3.38569   0.00248   0.00000   0.01760   0.01760   3.40329
    X6        0.00000  -0.00277   0.00000  -0.06945  -0.06945  -0.06945
    Y6        5.00194   0.00365   0.00000   0.06045   0.06045   5.06239
    Z6        3.22004   0.00190   0.00000   0.00181   0.00181   3.22186
    X7        1.25605  -0.00258   0.00000  -0.06310  -0.06310   1.19295
    Y7        0.00000  -0.00829   0.00000  -0.11261  -0.11261  -0.11261
    Z7        0.86013  -0.00142   0.00000  -0.00238  -0.00238   0.85776
         Item               Value     Threshold  Converged?
 Maximum Force            0.015419     0.000450     NO 
 RMS     Force            0.007497     0.000300     NO 
 Maximum Displacement     0.115227     0.001800     NO 
 RMS     Displacement     0.065520     0.001200     NO 
 Predicted change in Energy=-5.196445D-03
 GradGradGradGradGradGradGradGradGradGradGradGradGradGradGradGradGradGrad

 Leave Link  103 at Mon Nov 13 15:57:18 2023, MaxMem=  1879048192 cpu:               0.3 elap:               0.0
 (Enter /home/sekinelabo/g16/l9999.exe)
 1\1\GINC-SEKINELABO-XA7R-R37\Force\UB3LYP\6-311+G(d)\Na7(2)\SEKINELABO
 \13-Nov-2023\0\\#P B3LYP/6-311+g(d) force\\Gaussian input prepared by 
 ASE\\0,2\Na,3.576252877,0.7362480825,0.4222345614\Na,4.0246968394,1.02
 18466599,3.374370265\Na,6.3652414227,0.7600713858,1.515566934\Na,5.327
 4924381,3.1303255609,0.\Na,2.9253858886,3.3221771294,1.7916288967\Na,0
 .,2.6469138515,1.7039740275\Na,0.6646706369,0.,0.4551634048\\Version=E
 S64L-G16RevB.01\State=2-A\HF=-1136.0944393\S2=0.769559\S2-1=0.\S2A=0.7
 5024\RMSD=9.687e-09\RMSF=7.497e-03\Dipole=-0.07107,0.0262286,0.1511308
 \Quadrupole=13.4359201,-9.9302515,-3.5056686,-0.9466054,-1.2568602,0.3
 969741\PG=C01 [X(Na7)]\\@


 WHEN HAVING A MEETING OF THE MINDS,
 MAKE SURE YOU HAVE THE EQUIPMENT FOR IT.
 Job cpu time:       0 days  0 hours  5 minutes 23.9 seconds.
 Elapsed time:       0 days  0 hours  0 minutes 26.5 seconds.
 File lengths (MBytes):  RWF=     32 Int=      0 D2E=      0 Chk=      5 Scr=      1
 Normal termination of Gaussian 16 at Mon Nov 13 15:57:18 2023.
