 Entering Gaussian System, Link 0=g16
 Initial command:
 /home/sekinelabo/g16/l1.exe "/home/sekinelabo/g16temp/Gau-4056060.inp" -scrdir="/home/sekinelabo/g16temp/"
 Entering Link 1 = /home/sekinelabo/g16/l1.exe PID=   4056062.
  
 Copyright (c) 1988-2017, Gaussian, Inc.  All Rights Reserved.
  
 This is part of the Gaussian(R) 16 program.  It is based on
 the Gaussian(R) 09 system (copyright 2009, Gaussian, Inc.),
 the Gaussian(R) 03 system (copyright 2003, Gaussian, Inc.),
 the Gaussian(R) 98 system (copyright 1998, Gaussian, Inc.),
 the Gaussian(R) 94 system (copyright 1995, Gaussian, Inc.),
 the Gaussian 92(TM) system (copyright 1992, Gaussian, Inc.),
 the Gaussian 90(TM) system (copyright 1990, Gaussian, Inc.),
 the Gaussian 88(TM) system (copyright 1988, Gaussian, Inc.),
 the Gaussian 86(TM) system (copyright 1986, Carnegie Mellon
 University), and the Gaussian 82(TM) system (copyright 1983,
 Carnegie Mellon University). Gaussian is a federally registered
 trademark of Gaussian, Inc.
  
 This software contains proprietary and confidential information,
 including trade secrets, belonging to Gaussian, Inc.
  
 This software is provided under written license and may be
 used, copied, transmitted, or stored only in accord with that
 written license.
  
 The following legend is applicable only to US Government
 contracts under FAR:
  
                    RESTRICTED RIGHTS LEGEND
  
 Use, reproduction and disclosure by the US Government is
 subject to restrictions as set forth in subparagraphs (a)
 and (c) of the Commercial Computer Software - Restricted
 Rights clause in FAR 52.227-19.
  
 Gaussian, Inc.
 340 Quinnipiac St., Bldg. 40, Wallingford CT 06492
  
  
 ---------------------------------------------------------------
 Warning -- This program may not be used in any manner that
 competes with the business of Gaussian, Inc. or will provide
 assistance to any competitor of Gaussian, Inc.  The licensee
 of this program is prohibited from giving any competitor of
 Gaussian, Inc. access to this program.  By using this program,
 the user acknowledges that Gaussian, Inc. is engaged in the
 business of creating and licensing software in the field of
 computational chemistry and represents and warrants to the
 licensee that it is not a competitor of Gaussian, Inc. and that
 it will not use this program in any manner prohibited above.
 ---------------------------------------------------------------
  

 Cite this work as:
 Gaussian 16, Revision B.01,
 M. J. Frisch, G. W. Trucks, H. B. Schlegel, G. E. Scuseria, 
 M. A. Robb, J. R. Cheeseman, G. Scalmani, V. Barone, 
 G. A. Petersson, H. Nakatsuji, X. Li, M. Caricato, A. V. Marenich, 
 J. Bloino, B. G. Janesko, R. Gomperts, B. Mennucci, H. P. Hratchian, 
 J. V. Ortiz, A. F. Izmaylov, J. L. Sonnenberg, D. Williams-Young, 
 F. Ding, F. Lipparini, F. Egidi, J. Goings, B. Peng, A. Petrone, 
 T. Henderson, D. Ranasinghe, V. G. Zakrzewski, J. Gao, N. Rega, 
 G. Zheng, W. Liang, M. Hada, M. Ehara, K. Toyota, R. Fukuda, 
 J. Hasegawa, M. Ishida, T. Nakajima, Y. Honda, O. Kitao, H. Nakai, 
 T. Vreven, K. Throssell, J. A. Montgomery, Jr., J. E. Peralta, 
 F. Ogliaro, M. J. Bearpark, J. J. Heyd, E. N. Brothers, K. N. Kudin, 
 V. N. Staroverov, T. A. Keith, R. Kobayashi, J. Normand, 
 K. Raghavachari, A. P. Rendell, J. C. Burant, S. S. Iyengar, 
 J. Tomasi, M. Cossi, J. M. Millam, M. Klene, C. Adamo, R. Cammi, 
 J. W. Ochterski, R. L. Martin, K. Morokuma, O. Farkas, 
 J. B. Foresman, and D. J. Fox, Gaussian, Inc., Wallingford CT, 2016.
 
 ******************************************
 Gaussian 16:  ES64L-G16RevB.01 20-Dec-2017
                13-Nov-2023 
 ******************************************
 %mem=14GB
 %chk=checkpoint.chk
 %nprocshared=16
 Will use up to   16 processors via shared memory.
 -------------------------
 #P B3LYP/6-311+g(d) force
 -------------------------
 1/10=7,30=1,38=1/1,3;
 2/12=2,17=6,18=5,40=1/2;
 3/5=4,6=6,7=11,11=2,25=1,30=1,71=1,74=-5/1,2,3;
 4//1;
 5/5=2,38=5/2;
 6/7=2,8=2,9=2,10=2,28=1/1;
 7/29=1/1,2,3,16;
 1/10=7,30=1/3;
 99//99;
 Leave Link    1 at Mon Nov 13 16:40:30 2023, MaxMem=  1879048192 cpu:               0.3 elap:               0.0
 (Enter /home/sekinelabo/g16/l101.exe)
 ------------------------------
 Gaussian input prepared by ASE
 ------------------------------
 Symbolic Z-matrix:
 Charge =  0 Multiplicity = 2
 Na                    1.6932    3.44854   1.96879 
 Na                    3.71907   1.83086   3.1152 
 Na                    4.99647   0.44671   0.94769 
 Na                    2.55974   1.60958   0. 
 Na                    0.        1.4084    1.14258 
 Na                    2.16061   0.        2.16715 
 Na                    4.26807   3.49344   1.03444 
 
 ITRead=  0  0  0  0  0  0  0
 MicOpt= -1 -1 -1 -1 -1 -1 -1
 NAtoms=      7 NQM=        7 NQMF=       0 NMMI=      0 NMMIF=      0
                NMic=       0 NMicF=      0.
                    Isotopes and Nuclear Properties:
 (Nuclear quadrupole moments (NQMom) in fm**2, nuclear magnetic moments (NMagM)
  in nuclear magnetons)

  Atom         1           2           3           4           5           6           7
 IAtWgt=          23          23          23          23          23          23          23
 AtmWgt=  22.9897697  22.9897697  22.9897697  22.9897697  22.9897697  22.9897697  22.9897697
 NucSpn=           3           3           3           3           3           3           3
 AtZEff=  -0.0000000  -0.0000000  -0.0000000  -0.0000000  -0.0000000  -0.0000000  -0.0000000
 NQMom=   10.4000000  10.4000000  10.4000000  10.4000000  10.4000000  10.4000000  10.4000000
 NMagM=    2.2175200   2.2175200   2.2175200   2.2175200   2.2175200   2.2175200   2.2175200
 AtZNuc=  11.0000000  11.0000000  11.0000000  11.0000000  11.0000000  11.0000000  11.0000000
 Leave Link  101 at Mon Nov 13 16:40:30 2023, MaxMem=  1879048192 cpu:               2.7 elap:               0.2
 (Enter /home/sekinelabo/g16/l103.exe)

 GradGradGradGradGradGradGradGradGradGradGradGradGradGradGradGradGradGrad
 Berny optimization.
 Initialization pass.
 Trust Radius=3.00D-01 FncErr=1.00D-07 GrdErr=1.00D-07 EigMax=2.50D+02 EigMin=1.00D-04
 Number of steps in this run=      2 maximum allowed number of steps=      2.
 GradGradGradGradGradGradGradGradGradGradGradGradGradGradGradGradGradGrad

 Leave Link  103 at Mon Nov 13 16:40:30 2023, MaxMem=  1879048192 cpu:               0.2 elap:               0.0
 (Enter /home/sekinelabo/g16/l202.exe)
                          Input orientation:                          
 ---------------------------------------------------------------------
 Center     Atomic      Atomic             Coordinates (Angstroms)
 Number     Number       Type             X           Y           Z
 ---------------------------------------------------------------------
      1         11           0        1.693196    3.448543    1.968786
      2         11           0        3.719066    1.830864    3.115196
      3         11           0        4.996469    0.446708    0.947689
      4         11           0        2.559741    1.609583    0.000000
      5         11           0        0.000000    1.408403    1.142582
      6         11           0        2.160611    0.000000    2.167145
      7         11           0        4.268070    3.493443    1.034438
 ---------------------------------------------------------------------
                    Distance matrix (angstroms):
                    1          2          3          4          5
     1  Na   0.000000
     2  Na   2.834659   0.000000
     3  Na   4.578784   2.871539   0.000000
     4  Na   2.829981   3.331283   2.861474   0.000000
     5  Na   2.776994   4.230973   5.091909   2.810381   0.000000
     6  Na   3.485724   2.584502   3.119089   2.728842   2.775170
     7  Na   2.739525   2.719398   3.133797   2.745428   4.751369
                    6          7
     6  Na   0.000000
     7  Na   4.234212   0.000000
 Stoichiometry    Na7(2)
 Framework group  C1[X(Na7)]
 Deg. of freedom    15
 Full point group                 C1      NOp   1
 Largest Abelian subgroup         C1      NOp   1
 Largest concise Abelian subgroup C1      NOp   1
                         Standard orientation:                         
 ---------------------------------------------------------------------
 Center     Atomic      Atomic             Coordinates (Angstroms)
 Number     Number       Type             X           Y           Z
 ---------------------------------------------------------------------
      1         11           0       -1.077825    1.700323    0.486524
      2         11           0        0.948044    0.082644    1.632934
      3         11           0        2.225447   -1.301513   -0.534574
      4         11           0       -0.211281   -0.138637   -1.482262
      5         11           0       -2.771022   -0.339818   -0.339680
      6         11           0       -0.610411   -1.748221    0.684883
      7         11           0        1.497048    1.745222   -0.447824
 ---------------------------------------------------------------------
 Rotational constants (GHZ):           1.2931292           0.9345979           0.7801204
 Leave Link  202 at Mon Nov 13 16:40:31 2023, MaxMem=  1879048192 cpu:               0.0 elap:               0.0
 (Enter /home/sekinelabo/g16/l301.exe)
 Standard basis: 6-311+G(d) (5D, 7F)
 Ernie: Thresh=  0.10000D-02 Tol=  0.10000D-05 Strict=F.
 There are   217 symmetry adapted cartesian basis functions of A   symmetry.
 There are   210 symmetry adapted basis functions of A   symmetry.
   210 basis functions,   350 primitive gaussians,   217 cartesian basis functions
    39 alpha electrons       38 beta electrons
       nuclear repulsion energy       426.1254404077 Hartrees.
 IExCor=  402 DFT=T Ex+Corr=B3LYP ExCW=0 ScaHFX=  0.200000
 ScaDFX=  0.800000  0.720000  1.000000  0.810000 ScalE2=  1.000000  1.000000
 IRadAn=      5 IRanWt=     -1 IRanGd=            0 ICorTp=0 IEmpDi=  4
 NAtoms=    7 NActive=    7 NUniq=    7 SFac= 1.00D+00 NAtFMM=   60 NAOKFM=F Big=F
 Integral buffers will be    131072 words long.
 Raffenetti 2 integral format.
 Two-electron integral symmetry is turned on.
 Leave Link  301 at Mon Nov 13 16:40:31 2023, MaxMem=  1879048192 cpu:               0.6 elap:               0.0
 (Enter /home/sekinelabo/g16/l302.exe)
 NPDir=0 NMtPBC=     1 NCelOv=     1 NCel=       1 NClECP=     1 NCelD=      1
         NCelK=      1 NCelE2=     1 NClLst=     1 CellRange=     0.0.
 One-electron integrals computed using PRISM.
 One-electron integral symmetry used in STVInt
 NBasis=   210 RedAO= T EigKep=  2.03D-06  NBF=   210
 NBsUse=   209 1.00D-06 EigRej=  6.42D-07 NBFU=   209
 Precomputing XC quadrature grid using
 IXCGrd= 4 IRadAn=           5 IRanWt=          -1 IRanGd=           0 AccXCQ= 0.00D+00.
 Generated NRdTot=       0 NPtTot=           0 NUsed=           0 NTot=          32
 NSgBfM=   211   211   211   211   211 MxSgAt=     7 MxSgA2=     7.
 Leave Link  302 at Mon Nov 13 16:40:31 2023, MaxMem=  1879048192 cpu:               2.3 elap:               0.1
 (Enter /home/sekinelabo/g16/l303.exe)
 DipDrv:  MaxL=1.
 Leave Link  303 at Mon Nov 13 16:40:31 2023, MaxMem=  1879048192 cpu:               0.6 elap:               0.0
 (Enter /home/sekinelabo/g16/l401.exe)
 ExpMin= 7.60D-03 ExpMax= 3.62D+04 ExpMxC= 1.21D+03 IAcc=3 IRadAn=         5 AccDes= 0.00D+00
 Harris functional with IExCor=  402 and IRadAn=       5 diagonalized for initial guess.
 HarFok:  IExCor=  402 AccDes= 0.00D+00 IRadAn=         5 IDoV= 1 UseB2=F ITyADJ=14
 ICtDFT=  3500011 ScaDFX=  1.000000  1.000000  1.000000  1.000000
 FoFCou: FMM=F IPFlag=           0 FMFlag=      100000 FMFlg1=           0
         NFxFlg=           0 DoJE=T BraDBF=F KetDBF=T FulRan=T
         wScrn=  0.000000 ICntrl=       500 IOpCl=  0 I1Cent=   200000004 NGrid=           0
         NMat0=    1 NMatS0=      1 NMatT0=    0 NMatD0=    1 NMtDS0=    0 NMtDT0=    0
 Petite list used in FoFCou.
 Harris En= -1135.83294095532    
 JPrj=0 DoOrth=F DoCkMO=F.
 Initial guess <Sx>= 0.0000 <Sy>= 0.0000 <Sz>= 0.5000 <S**2>= 0.7500 S= 0.5000
 Leave Link  401 at Mon Nov 13 16:40:31 2023, MaxMem=  1879048192 cpu:               4.9 elap:               0.3
 (Enter /home/sekinelabo/g16/l502.exe)
 Keep R1 and R2 ints in memory in canonical form, NReq=507620388.
 FoFCou: FMM=F IPFlag=           0 FMFlag=           0 FMFlg1=           0
         NFxFlg=           0 DoJE=F BraDBF=F KetDBF=F FulRan=T
         wScrn=  0.000000 ICntrl=       600 IOpCl=  0 I1Cent=           0 NGrid=           0
         NMat0=    1 NMatS0=  22155 NMatT0=    0 NMatD0=    1 NMtDS0=    0 NMtDT0=    0
 Symmetry not used in FoFCou.
 Two-electron integral symmetry not used.
 UHF open shell SCF:
 Using DIIS extrapolation, IDIIS=  1040.
 NGot=  1879048192 LenX=  1388082348 LenY=  1388034818
 Requested convergence on RMS density matrix=1.00D-08 within 128 cycles.
 Requested convergence on MAX density matrix=1.00D-06.
 Requested convergence on             energy=1.00D-06.
 No special actions if energy rises.

 Cycle   1  Pass 1  IDiag  1:
 E= -1136.00897065429    
 DIIS: error= 1.68D-02 at cycle   1 NSaved=   1.
 NSaved= 1 IEnMin= 1 EnMin= -1136.00897065429     IErMin= 1 ErrMin= 1.68D-02
 ErrMax= 1.68D-02  0.00D+00 EMaxC= 1.00D-01 BMatC= 2.19D-01 BMatP= 2.19D-01
 IDIUse=3 WtCom= 8.32D-01 WtEn= 1.68D-01
 Coeff-Com:  0.100D+01
 Coeff-En:   0.100D+01
 Coeff:      0.100D+01
 Gap=     0.063 Goal=   None    Shift=    0.000
 Gap=     0.040 Goal=   None    Shift=    0.000
 GapD=    0.040 DampG=0.250 DampE=0.500 DampFc=0.2500 IDamp=-1.
 Damping current iteration by 2.50D-01
 RMSDP=9.35D-02 MaxDP=7.75D+00              OVMax= 2.68D-01

 Cycle   2  Pass 1  IDiag  1:
 E= -1136.02645965031     Delta-E=       -0.017488996021 Rises=F Damp=T
 DIIS: error= 8.07D-03 at cycle   2 NSaved=   2.
 NSaved= 2 IEnMin= 2 EnMin= -1136.02645965031     IErMin= 2 ErrMin= 8.07D-03
 ErrMax= 8.07D-03  0.00D+00 EMaxC= 1.00D-01 BMatC= 8.20D-02 BMatP= 2.19D-01
 IDIUse=3 WtCom= 9.19D-01 WtEn= 8.07D-02
 Coeff-Com: -0.126D+01 0.226D+01
 Coeff-En:   0.000D+00 0.100D+01
 Coeff:     -0.116D+01 0.216D+01
 Gap=     0.073 Goal=   None    Shift=    0.000
 Gap=     0.042 Goal=   None    Shift=    0.000
 RMSDP=4.16D-02 MaxDP=3.80D+00 DE=-1.75D-02 OVMax= 1.81D-01

 Cycle   3  Pass 1  IDiag  1:
 E= -1136.05533672590     Delta-E=       -0.028877075583 Rises=F Damp=F
 DIIS: error= 4.27D-03 at cycle   3 NSaved=   3.
 NSaved= 3 IEnMin= 3 EnMin= -1136.05533672590     IErMin= 3 ErrMin= 4.27D-03
 ErrMax= 4.27D-03  0.00D+00 EMaxC= 1.00D-01 BMatC= 5.04D-03 BMatP= 8.20D-02
 IDIUse=3 WtCom= 9.57D-01 WtEn= 4.27D-02
 Coeff-Com: -0.297D+00 0.540D+00 0.757D+00
 Coeff-En:   0.000D+00 0.000D+00 0.100D+01
 Coeff:     -0.285D+00 0.517D+00 0.767D+00
 Gap=     0.068 Goal=   None    Shift=    0.000
 Gap=     0.042 Goal=   None    Shift=    0.000
 RMSDP=1.69D-02 MaxDP=1.27D+00 DE=-2.89D-02 OVMax= 5.97D-02

 Cycle   4  Pass 1  IDiag  1:
 E= -1136.05630349657     Delta-E=       -0.000966770677 Rises=F Damp=F
 DIIS: error= 3.28D-03 at cycle   4 NSaved=   4.
 NSaved= 4 IEnMin= 4 EnMin= -1136.05630349657     IErMin= 4 ErrMin= 3.28D-03
 ErrMax= 3.28D-03  0.00D+00 EMaxC= 1.00D-01 BMatC= 3.03D-03 BMatP= 5.04D-03
 IDIUse=3 WtCom= 9.67D-01 WtEn= 3.28D-02
 Coeff-Com: -0.264D-03 0.182D-02 0.436D+00 0.562D+00
 Coeff-En:   0.000D+00 0.000D+00 0.398D+00 0.602D+00
 Coeff:     -0.255D-03 0.176D-02 0.435D+00 0.564D+00
 Gap=     0.070 Goal=   None    Shift=    0.000
 Gap=     0.043 Goal=   None    Shift=    0.000
 RMSDP=4.83D-03 MaxDP=3.76D-01 DE=-9.67D-04 OVMax= 3.07D-02

 Cycle   5  Pass 1  IDiag  1:
 E= -1136.05787647870     Delta-E=       -0.001572982123 Rises=F Damp=F
 DIIS: error= 5.07D-04 at cycle   5 NSaved=   5.
 NSaved= 5 IEnMin= 5 EnMin= -1136.05787647870     IErMin= 5 ErrMin= 5.07D-04
 ErrMax= 5.07D-04  0.00D+00 EMaxC= 1.00D-01 BMatC= 6.67D-05 BMatP= 3.03D-03
 IDIUse=3 WtCom= 9.95D-01 WtEn= 5.07D-03
 Coeff-Com: -0.132D-03 0.186D-03 0.260D+00 0.339D+00 0.402D+00
 Coeff-En:   0.000D+00 0.000D+00 0.000D+00 0.000D+00 0.100D+01
 Coeff:     -0.132D-03 0.185D-03 0.258D+00 0.337D+00 0.405D+00
 Gap=     0.069 Goal=   None    Shift=    0.000
 Gap=     0.043 Goal=   None    Shift=    0.000
 RMSDP=5.93D-04 MaxDP=3.12D-02 DE=-1.57D-03 OVMax= 8.74D-03

 Cycle   6  Pass 1  IDiag  1:
 E= -1136.05794010180     Delta-E=       -0.000063623105 Rises=F Damp=F
 DIIS: error= 1.05D-04 at cycle   6 NSaved=   6.
 NSaved= 6 IEnMin= 6 EnMin= -1136.05794010180     IErMin= 6 ErrMin= 1.05D-04
 ErrMax= 1.05D-04  0.00D+00 EMaxC= 1.00D-01 BMatC= 3.62D-06 BMatP= 6.67D-05
 IDIUse=3 WtCom= 9.99D-01 WtEn= 1.05D-03
 Coeff-Com: -0.146D-02 0.160D-02-0.271D-01-0.405D-01 0.149D+00 0.919D+00
 Coeff-En:   0.000D+00 0.000D+00 0.000D+00 0.000D+00 0.000D+00 0.100D+01
 Coeff:     -0.146D-02 0.160D-02-0.271D-01-0.404D-01 0.148D+00 0.919D+00
 Gap=     0.070 Goal=   None    Shift=    0.000
 Gap=     0.043 Goal=   None    Shift=    0.000
 RMSDP=4.09D-04 MaxDP=3.58D-02 DE=-6.36D-05 OVMax= 2.49D-03

 Cycle   7  Pass 1  IDiag  1:
 E= -1136.05794457306     Delta-E=       -0.000004471255 Rises=F Damp=F
 DIIS: error= 7.06D-05 at cycle   7 NSaved=   7.
 NSaved= 7 IEnMin= 7 EnMin= -1136.05794457306     IErMin= 7 ErrMin= 7.06D-05
 ErrMax= 7.06D-05  0.00D+00 EMaxC= 1.00D-01 BMatC= 9.28D-07 BMatP= 3.62D-06
 IDIUse=1 WtCom= 1.00D+00 WtEn= 0.00D+00
 Coeff-Com: -0.686D-03 0.695D-03-0.316D-01-0.438D-01 0.605D-01 0.518D+00
 Coeff-Com:  0.496D+00
 Coeff:     -0.686D-03 0.695D-03-0.316D-01-0.438D-01 0.605D-01 0.518D+00
 Coeff:      0.496D+00
 Gap=     0.070 Goal=   None    Shift=    0.000
 Gap=     0.043 Goal=   None    Shift=    0.000
 RMSDP=8.93D-05 MaxDP=6.99D-03 DE=-4.47D-06 OVMax= 1.06D-03

 Cycle   8  Pass 1  IDiag  1:
 E= -1136.05794553032     Delta-E=       -0.000000957268 Rises=F Damp=F
 DIIS: error= 2.51D-05 at cycle   8 NSaved=   8.
 NSaved= 8 IEnMin= 8 EnMin= -1136.05794553032     IErMin= 8 ErrMin= 2.51D-05
 ErrMax= 2.51D-05  0.00D+00 EMaxC= 1.00D-01 BMatC= 1.44D-07 BMatP= 9.28D-07
 IDIUse=1 WtCom= 1.00D+00 WtEn= 0.00D+00
 Coeff-Com:  0.575D-03-0.729D-03-0.351D-02-0.234D-02-0.426D-01-0.201D+00
 Coeff-Com:  0.229D+00 0.102D+01
 Coeff:      0.575D-03-0.729D-03-0.351D-02-0.234D-02-0.426D-01-0.201D+00
 Coeff:      0.229D+00 0.102D+01
 Gap=     0.070 Goal=   None    Shift=    0.000
 Gap=     0.043 Goal=   None    Shift=    0.000
 RMSDP=9.11D-05 MaxDP=7.18D-03 DE=-9.57D-07 OVMax= 1.33D-03

 Cycle   9  Pass 1  IDiag  1:
 E= -1136.05794589715     Delta-E=       -0.000000366824 Rises=F Damp=F
 DIIS: error= 4.70D-06 at cycle   9 NSaved=   9.
 NSaved= 9 IEnMin= 9 EnMin= -1136.05794589715     IErMin= 9 ErrMin= 4.70D-06
 ErrMax= 4.70D-06  0.00D+00 EMaxC= 1.00D-01 BMatC= 9.54D-09 BMatP= 1.44D-07
 IDIUse=1 WtCom= 1.00D+00 WtEn= 0.00D+00
 Coeff-Com:  0.196D-03-0.238D-03 0.173D-02 0.294D-02-0.113D-01-0.676D-01
 Coeff-Com: -0.148D-01 0.149D+00 0.940D+00
 Coeff:      0.196D-03-0.238D-03 0.173D-02 0.294D-02-0.113D-01-0.676D-01
 Coeff:     -0.148D-01 0.149D+00 0.940D+00
 Gap=     0.070 Goal=   None    Shift=    0.000
 Gap=     0.043 Goal=   None    Shift=    0.000
 RMSDP=2.69D-05 MaxDP=2.28D-03 DE=-3.67D-07 OVMax= 4.35D-04

 Cycle  10  Pass 1  IDiag  1:
 E= -1136.05794593294     Delta-E=       -0.000000035797 Rises=F Damp=F
 DIIS: error= 2.41D-06 at cycle  10 NSaved=  10.
 NSaved=10 IEnMin=10 EnMin= -1136.05794593294     IErMin=10 ErrMin= 2.41D-06
 ErrMax= 2.41D-06  0.00D+00 EMaxC= 1.00D-01 BMatC= 2.67D-09 BMatP= 9.54D-09
 IDIUse=1 WtCom= 1.00D+00 WtEn= 0.00D+00
 Coeff-Com: -0.577D-04 0.842D-04 0.156D-02 0.169D-02 0.427D-02 0.965D-02
 Coeff-Com: -0.460D-01-0.148D+00 0.275D+00 0.902D+00
 Coeff:     -0.577D-04 0.842D-04 0.156D-02 0.169D-02 0.427D-02 0.965D-02
 Coeff:     -0.460D-01-0.148D+00 0.275D+00 0.902D+00
 Gap=     0.070 Goal=   None    Shift=    0.000
 Gap=     0.043 Goal=   None    Shift=    0.000
 RMSDP=1.64D-05 MaxDP=1.59D-03 DE=-3.58D-08 OVMax= 2.55D-04

 Cycle  11  Pass 1  IDiag  1:
 E= -1136.05794594261     Delta-E=       -0.000000009665 Rises=F Damp=F
 DIIS: error= 9.83D-07 at cycle  11 NSaved=  11.
 NSaved=11 IEnMin=11 EnMin= -1136.05794594261     IErMin=11 ErrMin= 9.83D-07
 ErrMax= 9.83D-07  0.00D+00 EMaxC= 1.00D-01 BMatC= 3.83D-10 BMatP= 2.67D-09
 IDIUse=1 WtCom= 1.00D+00 WtEn= 0.00D+00
 Coeff-Com: -0.606D-04 0.779D-04 0.112D-03-0.809D-04 0.298D-02 0.144D-01
 Coeff-Com: -0.766D-02-0.621D-01-0.108D+00 0.159D+00 0.100D+01
 Coeff:     -0.606D-04 0.779D-04 0.112D-03-0.809D-04 0.298D-02 0.144D-01
 Coeff:     -0.766D-02-0.621D-01-0.108D+00 0.159D+00 0.100D+01
 Gap=     0.070 Goal=   None    Shift=    0.000
 Gap=     0.043 Goal=   None    Shift=    0.000
 RMSDP=6.98D-06 MaxDP=5.39D-04 DE=-9.66D-09 OVMax= 1.28D-04

 Cycle  12  Pass 1  IDiag  1:
 E= -1136.05794594433     Delta-E=       -0.000000001720 Rises=F Damp=F
 DIIS: error= 1.03D-06 at cycle  12 NSaved=  12.
 NSaved=12 IEnMin=12 EnMin= -1136.05794594433     IErMin=11 ErrMin= 9.83D-07
 ErrMax= 1.03D-06  0.00D+00 EMaxC= 1.00D-01 BMatC= 2.57D-10 BMatP= 3.83D-10
 IDIUse=1 WtCom= 1.00D+00 WtEn= 0.00D+00
 Coeff-Com: -0.292D-04 0.362D-04-0.765D-04-0.205D-03 0.135D-02 0.776D-02
 Coeff-Com:  0.169D-03-0.222D-01-0.983D-01-0.346D-02 0.611D+00 0.504D+00
 Coeff:     -0.292D-04 0.362D-04-0.765D-04-0.205D-03 0.135D-02 0.776D-02
 Coeff:      0.169D-03-0.222D-01-0.983D-01-0.346D-02 0.611D+00 0.504D+00
 Gap=     0.070 Goal=   None    Shift=    0.000
 Gap=     0.043 Goal=   None    Shift=    0.000
 RMSDP=1.69D-06 MaxDP=1.20D-04 DE=-1.72D-09 OVMax= 3.30D-05

 Cycle  13  Pass 1  IDiag  1:
 E= -1136.05794594475     Delta-E=       -0.000000000416 Rises=F Damp=F
 DIIS: error= 3.42D-07 at cycle  13 NSaved=  13.
 NSaved=13 IEnMin=13 EnMin= -1136.05794594475     IErMin=13 ErrMin= 3.42D-07
 ErrMax= 3.42D-07  0.00D+00 EMaxC= 1.00D-01 BMatC= 3.71D-11 BMatP= 2.57D-10
 IDIUse=1 WtCom= 1.00D+00 WtEn= 0.00D+00
 Coeff-Com:  0.167D-04-0.223D-04-0.650D-04-0.364D-04-0.712D-03-0.280D-02
 Coeff-Com:  0.321D-02 0.166D-01 0.216D-02-0.653D-01-0.177D+00 0.188D+00
 Coeff-Com:  0.104D+01
 Coeff:      0.167D-04-0.223D-04-0.650D-04-0.364D-04-0.712D-03-0.280D-02
 Coeff:      0.321D-02 0.166D-01 0.216D-02-0.653D-01-0.177D+00 0.188D+00
 Coeff:      0.104D+01
 Gap=     0.070 Goal=   None    Shift=    0.000
 Gap=     0.043 Goal=   None    Shift=    0.000
 RMSDP=1.98D-06 MaxDP=1.59D-04 DE=-4.16D-10 OVMax= 4.20D-05

 Cycle  14  Pass 1  IDiag  1:
 E= -1136.05794594493     Delta-E=       -0.000000000188 Rises=F Damp=F
 DIIS: error= 2.01D-07 at cycle  14 NSaved=  14.
 NSaved=14 IEnMin=14 EnMin= -1136.05794594493     IErMin=14 ErrMin= 2.01D-07
 ErrMax= 2.01D-07  0.00D+00 EMaxC= 1.00D-01 BMatC= 6.19D-12 BMatP= 3.71D-11
 IDIUse=1 WtCom= 1.00D+00 WtEn= 0.00D+00
 Coeff-Com:  0.548D-05-0.657D-05 0.112D-04 0.441D-04-0.272D-03-0.165D-02
 Coeff-Com: -0.219D-03 0.423D-02 0.270D-01 0.819D-02-0.141D+00-0.138D+00
 Coeff-Com: -0.842D-01 0.133D+01
 Coeff:      0.548D-05-0.657D-05 0.112D-04 0.441D-04-0.272D-03-0.165D-02
 Coeff:     -0.219D-03 0.423D-02 0.270D-01 0.819D-02-0.141D+00-0.138D+00
 Coeff:     -0.842D-01 0.133D+01
 Gap=     0.070 Goal=   None    Shift=    0.000
 Gap=     0.043 Goal=   None    Shift=    0.000
 RMSDP=1.32D-06 MaxDP=7.88D-05 DE=-1.88D-10 OVMax= 3.25D-05

 Cycle  15  Pass 1  IDiag  1:
 E= -1136.05794594498     Delta-E=       -0.000000000045 Rises=F Damp=F
 DIIS: error= 9.90D-08 at cycle  15 NSaved=  15.
 NSaved=15 IEnMin=15 EnMin= -1136.05794594498     IErMin=15 ErrMin= 9.90D-08
 ErrMax= 9.90D-08  0.00D+00 EMaxC= 1.00D-01 BMatC= 1.19D-12 BMatP= 6.19D-12
 IDIUse=1 WtCom= 1.00D+00 WtEn= 0.00D+00
 Coeff-Com: -0.392D-05 0.528D-05 0.807D-05-0.612D-07 0.143D-03 0.613D-03
 Coeff-Com: -0.670D-03-0.358D-02 0.320D-03 0.113D-01 0.277D-01-0.300D-01
 Coeff-Com: -0.177D+00-0.759D-01 0.125D+01
 Coeff:     -0.392D-05 0.528D-05 0.807D-05-0.612D-07 0.143D-03 0.613D-03
 Coeff:     -0.670D-03-0.358D-02 0.320D-03 0.113D-01 0.277D-01-0.300D-01
 Coeff:     -0.177D+00-0.759D-01 0.125D+01
 Gap=     0.070 Goal=   None    Shift=    0.000
 Gap=     0.043 Goal=   None    Shift=    0.000
 RMSDP=6.37D-07 MaxDP=4.24D-05 DE=-4.50D-11 OVMax= 1.79D-05

 Cycle  16  Pass 1  IDiag  1:
 E= -1136.05794594500     Delta-E=       -0.000000000019 Rises=F Damp=F
 DIIS: error= 4.37D-08 at cycle  16 NSaved=  16.
 NSaved=16 IEnMin=16 EnMin= -1136.05794594500     IErMin=16 ErrMin= 4.37D-08
 ErrMax= 4.37D-08  0.00D+00 EMaxC= 1.00D-01 BMatC= 3.72D-13 BMatP= 1.19D-12
 IDIUse=1 WtCom= 1.00D+00 WtEn= 0.00D+00
 Coeff-Com: -0.412D-06 0.373D-06-0.206D-06-0.744D-05 0.522D-04 0.255D-03
 Coeff-Com:  0.156D-03-0.608D-03-0.533D-02-0.532D-02 0.264D-01 0.408D-01
 Coeff-Com:  0.622D-01-0.362D+00-0.400D-02 0.125D+01
 Coeff:     -0.412D-06 0.373D-06-0.206D-06-0.744D-05 0.522D-04 0.255D-03
 Coeff:      0.156D-03-0.608D-03-0.533D-02-0.532D-02 0.264D-01 0.408D-01
 Coeff:      0.622D-01-0.362D+00-0.400D-02 0.125D+01
 Gap=     0.070 Goal=   None    Shift=    0.000
 Gap=     0.043 Goal=   None    Shift=    0.000
 RMSDP=2.72D-07 MaxDP=1.57D-05 DE=-1.91D-11 OVMax= 8.74D-06

 Cycle  17  Pass 1  IDiag  1:
 E= -1136.05794594500     Delta-E=       -0.000000000002 Rises=F Damp=F
 DIIS: error= 1.83D-08 at cycle  17 NSaved=  17.
 NSaved=17 IEnMin=17 EnMin= -1136.05794594500     IErMin=17 ErrMin= 1.83D-08
 ErrMax= 1.83D-08  0.00D+00 EMaxC= 1.00D-01 BMatC= 1.03D-13 BMatP= 3.72D-13
 IDIUse=1 WtCom= 1.00D+00 WtEn= 0.00D+00
 Coeff-Com:  0.127D-05-0.175D-05-0.217D-05-0.657D-06-0.372D-04-0.100D-03
 Coeff-Com:  0.147D-03 0.881D-03-0.209D-03-0.440D-02-0.652D-02 0.183D-01
 Coeff-Com:  0.754D-01-0.480D-01-0.427D+00 0.274D+00 0.112D+01
 Coeff:      0.127D-05-0.175D-05-0.217D-05-0.657D-06-0.372D-04-0.100D-03
 Coeff:      0.147D-03 0.881D-03-0.209D-03-0.440D-02-0.652D-02 0.183D-01
 Coeff:      0.754D-01-0.480D-01-0.427D+00 0.274D+00 0.112D+01
 Gap=     0.070 Goal=   None    Shift=    0.000
 Gap=     0.043 Goal=   None    Shift=    0.000
 RMSDP=1.38D-07 MaxDP=8.35D-06 DE=-1.82D-12 OVMax= 4.71D-06

 Cycle  18  Pass 1  IDiag  1:
 E= -1136.05794594501     Delta-E=       -0.000000000015 Rises=F Damp=F
 DIIS: error= 5.56D-09 at cycle  18 NSaved=  18.
 NSaved=18 IEnMin=18 EnMin= -1136.05794594501     IErMin=18 ErrMin= 5.56D-09
 ErrMax= 5.56D-09  0.00D+00 EMaxC= 1.00D-01 BMatC= 1.02D-14 BMatP= 1.03D-13
 IDIUse=1 WtCom= 1.00D+00 WtEn= 0.00D+00
 Coeff-Com: -0.444D-07 0.968D-07-0.698D-06 0.104D-05-0.653D-05-0.545D-04
 Coeff-Com: -0.381D-04 0.872D-04 0.980D-03 0.106D-02-0.569D-02-0.802D-02
 Coeff-Com: -0.116D-01 0.500D-01 0.771D-01-0.254D+00-0.167D+00 0.132D+01
 Coeff:     -0.444D-07 0.968D-07-0.698D-06 0.104D-05-0.653D-05-0.545D-04
 Coeff:     -0.381D-04 0.872D-04 0.980D-03 0.106D-02-0.569D-02-0.802D-02
 Coeff:     -0.116D-01 0.500D-01 0.771D-01-0.254D+00-0.167D+00 0.132D+01
 Gap=     0.070 Goal=   None    Shift=    0.000
 Gap=     0.043 Goal=   None    Shift=    0.000
 RMSDP=5.95D-08 MaxDP=5.34D-06 DE=-1.48D-11 OVMax= 1.47D-06

 Cycle  19  Pass 1  IDiag  1:
 E= -1136.05794594500     Delta-E=        0.000000000012 Rises=F Damp=F
 DIIS: error= 1.57D-09 at cycle  19 NSaved=  19.
 NSaved=19 IEnMin=18 EnMin= -1136.05794594501     IErMin=19 ErrMin= 1.57D-09
 ErrMax= 1.57D-09  0.00D+00 EMaxC= 1.00D-01 BMatC= 8.18D-16 BMatP= 1.02D-14
 IDIUse=1 WtCom= 1.00D+00 WtEn= 0.00D+00
 Large coefficients: NSaved= 19 BigCof=    0.00 CofMax=   10.00 Det=-1.32D-15
 Inversion failed.  Reducing to 18 matrices.
 Large coefficients: NSaved= 18 BigCof=    0.00 CofMax=   10.00 Det=-1.33D-15
 Inversion failed.  Reducing to 17 matrices.
 Large coefficients: NSaved= 17 BigCof=    0.00 CofMax=   10.00 Det=-1.36D-15
 Inversion failed.  Reducing to 16 matrices.
 Large coefficients: NSaved= 16 BigCof=    0.00 CofMax=   10.00 Det=-1.39D-15
 Inversion failed.  Reducing to 15 matrices.
 Coeff-Com: -0.126D-05-0.417D-05-0.685D-06 0.129D-05 0.131D-03 0.156D-03
 Coeff-Com: -0.281D-03-0.981D-03-0.273D-02 0.474D-02 0.168D-01-0.129D-01
 Coeff-Com: -0.755D-01-0.438D-01 0.111D+01
 Coeff:     -0.126D-05-0.417D-05-0.685D-06 0.129D-05 0.131D-03 0.156D-03
 Coeff:     -0.281D-03-0.981D-03-0.273D-02 0.474D-02 0.168D-01-0.129D-01
 Coeff:     -0.755D-01-0.438D-01 0.111D+01
 Gap=     0.070 Goal=   None    Shift=    0.000
 Gap=     0.043 Goal=   None    Shift=    0.000
 RMSDP=1.47D-08 MaxDP=1.08D-06 DE= 1.16D-11 OVMax= 2.60D-07

 Cycle  20  Pass 1  IDiag  1:
 E= -1136.05794594501     Delta-E=       -0.000000000006 Rises=F Damp=F
 DIIS: error= 6.72D-10 at cycle  20 NSaved=  16.
 NSaved=16 IEnMin=14 EnMin= -1136.05794594501     IErMin=16 ErrMin= 6.72D-10
 ErrMax= 6.72D-10  0.00D+00 EMaxC= 1.00D-01 BMatC= 1.10D-16 BMatP= 8.18D-16
 IDIUse=1 WtCom= 1.00D+00 WtEn= 0.00D+00
 Large coefficients: NSaved= 16 BigCof=    0.00 CofMax=   10.00 Det=-3.63D-16
 Inversion failed.  Reducing to 15 matrices.
 Coeff-Com: -0.683D-06 0.830D-06 0.188D-05 0.774D-06-0.266D-04 0.628D-04
 Coeff-Com: -0.114D-03-0.805D-03-0.166D-03 0.601D-02 0.162D-02-0.163D-01
 Coeff-Com: -0.366D-01 0.133D+00 0.914D+00
 Coeff:     -0.683D-06 0.830D-06 0.188D-05 0.774D-06-0.266D-04 0.628D-04
 Coeff:     -0.114D-03-0.805D-03-0.166D-03 0.601D-02 0.162D-02-0.163D-01
 Coeff:     -0.366D-01 0.133D+00 0.914D+00
 Gap=     0.070 Goal=   None    Shift=    0.000
 Gap=     0.043 Goal=   None    Shift=    0.000
 RMSDP=5.14D-09 MaxDP=3.76D-07 DE=-6.14D-12 OVMax= 2.58D-08

 SCF Done:  E(UB3LYP) =  -1136.05794595     A.U. after   20 cycles
            NFock= 20  Conv=0.51D-08     -V/T= 2.0021
 <Sx>= 0.0000 <Sy>= 0.0000 <Sz>= 0.5000 <S**2>= 0.7589 S= 0.5044
 <L.S>= 0.000000000000E+00
 KE= 1.133660982319D+03 PE=-3.581664215681D+03 EE= 8.858198470092D+02
 Annihilation of the first spin contaminant:
 S**2 before annihilation     0.7589,   after     0.7501
 Leave Link  502 at Mon Nov 13 16:40:48 2023, MaxMem=  1879048192 cpu:             197.8 elap:              17.1
 (Enter /home/sekinelabo/g16/l601.exe)
 Copying SCF densities to generalized density rwf, IOpCl= 1 IROHF=0.

 **********************************************************************

            Population analysis using the SCF Density.

 **********************************************************************

 Orbital symmetries:
 Alpha Orbitals:
       Occupied  (A) (A) (A) (A) (A) (A) (A) (A) (A) (A) (A) (A)
                 (A) (A) (A) (A) (A) (A) (A) (A) (A) (A) (A) (A)
                 (A) (A) (A) (A) (A) (A) (A) (A) (A) (A) (A) (A)
                 (A) (A) (A)
       Virtual   (A) (A) (A) (A) (A) (A) (A) (A) (A) (A) (A) (A)
                 (A) (A) (A) (A) (A) (A) (A) (A) (A) (A) (A) (A)
                 (A) (A) (A) (A) (A) (A) (A) (A) (A) (A) (A) (A)
                 (A) (A) (A) (A) (A) (A) (A) (A) (A) (A) (A) (A)
                 (A) (A) (A) (A) (A) (A) (A) (A) (A) (A) (A) (A)
                 (A) (A) (A) (A) (A) (A) (A) (A) (A) (A) (A) (A)
                 (A) (A) (A) (A) (A) (A) (A) (A) (A) (A) (A) (A)
                 (A) (A) (A) (A) (A) (A) (A) (A) (A) (A) (A) (A)
                 (A) (A) (A) (A) (A) (A) (A) (A) (A) (A) (A) (A)
                 (A) (A) (A) (A) (A) (A) (A) (A) (A) (A) (A) (A)
                 (A) (A) (A) (A) (A) (A) (A) (A) (A) (A) (A) (A)
                 (A) (A) (A) (A) (A) (A) (A) (A) (A) (A) (A) (A)
                 (A) (A) (A) (A) (A) (A) (A) (A) (A) (A) (A) (A)
                 (A) (A) (A) (A) (A) (A) (A) (A) (A) (A) (A) (A)
                 (A) (A)
 Beta  Orbitals:
       Occupied  (A) (A) (A) (A) (A) (A) (A) (A) (A) (A) (A) (A)
                 (A) (A) (A) (A) (A) (A) (A) (A) (A) (A) (A) (A)
                 (A) (A) (A) (A) (A) (A) (A) (A) (A) (A) (A) (A)
                 (A) (A)
       Virtual   (A) (A) (A) (A) (A) (A) (A) (A) (A) (A) (A) (A)
                 (A) (A) (A) (A) (A) (A) (A) (A) (A) (A) (A) (A)
                 (A) (A) (A) (A) (A) (A) (A) (A) (A) (A) (A) (A)
                 (A) (A) (A) (A) (A) (A) (A) (A) (A) (A) (A) (A)
                 (A) (A) (A) (A) (A) (A) (A) (A) (A) (A) (A) (A)
                 (A) (A) (A) (A) (A) (A) (A) (A) (A) (A) (A) (A)
                 (A) (A) (A) (A) (A) (A) (A) (A) (A) (A) (A) (A)
                 (A) (A) (A) (A) (A) (A) (A) (A) (A) (A) (A) (A)
                 (A) (A) (A) (A) (A) (A) (A) (A) (A) (A) (A) (A)
                 (A) (A) (A) (A) (A) (A) (A) (A) (A) (A) (A) (A)
                 (A) (A) (A) (A) (A) (A) (A) (A) (A) (A) (A) (A)
                 (A) (A) (A) (A) (A) (A) (A) (A) (A) (A) (A) (A)
                 (A) (A) (A) (A) (A) (A) (A) (A) (A) (A) (A) (A)
                 (A) (A) (A) (A) (A) (A) (A) (A) (A) (A) (A) (A)
                 (A) (A) (A)
 The electronic state is 2-A.
 Alpha  occ. eigenvalues --  -38.44693 -38.44528 -38.44260 -38.43758 -38.43733
 Alpha  occ. eigenvalues --  -38.43717 -38.43470  -2.21025  -2.20698  -2.20603
 Alpha  occ. eigenvalues --   -2.19999  -2.19913  -2.19818  -2.19707  -1.14950
 Alpha  occ. eigenvalues --   -1.14825  -1.14703  -1.14646  -1.14476  -1.14427
 Alpha  occ. eigenvalues --   -1.14293  -1.14286  -1.14135  -1.13740  -1.13602
 Alpha  occ. eigenvalues --   -1.13592  -1.13546  -1.13532  -1.13488  -1.13467
 Alpha  occ. eigenvalues --   -1.13446  -1.13357  -1.13339  -1.13303  -1.13173
 Alpha  occ. eigenvalues --   -0.21991  -0.14267  -0.12679  -0.12438
 Alpha virt. eigenvalues --   -0.05465  -0.04189  -0.03836  -0.03766  -0.03029
 Alpha virt. eigenvalues --   -0.02745  -0.01223  -0.00427  -0.00140   0.00307
 Alpha virt. eigenvalues --    0.00816   0.00878   0.01058   0.01142   0.01233
 Alpha virt. eigenvalues --    0.01270   0.01350   0.01426   0.01477   0.01500
 Alpha virt. eigenvalues --    0.01684   0.01762   0.01952   0.01997   0.02024
 Alpha virt. eigenvalues --    0.02621   0.02783   0.02947   0.02998   0.03063
 Alpha virt. eigenvalues --    0.03089   0.03144   0.03157   0.03249   0.03357
 Alpha virt. eigenvalues --    0.03466   0.03507   0.03924   0.03958   0.04151
 Alpha virt. eigenvalues --    0.04895   0.05040   0.05114   0.05281   0.05450
 Alpha virt. eigenvalues --    0.05593   0.05624   0.05820   0.05920   0.06419
 Alpha virt. eigenvalues --    0.06778   0.07105   0.07409   0.07560   0.08029
 Alpha virt. eigenvalues --    0.08406   0.08861   0.09126   0.09326   0.09792
 Alpha virt. eigenvalues --    0.10129   0.12326   0.12599   0.12834   0.13081
 Alpha virt. eigenvalues --    0.13289   0.13423   0.13875   0.13957   0.14383
 Alpha virt. eigenvalues --    0.14621   0.14936   0.15162   0.16098   0.16406
 Alpha virt. eigenvalues --    0.16864   0.17181   0.18444   0.19650   0.23014
 Alpha virt. eigenvalues --    0.25104   0.27706   0.28549   0.29112   0.30060
 Alpha virt. eigenvalues --    0.30387   0.31654   0.33712   0.34945   0.35611
 Alpha virt. eigenvalues --    0.36048   0.38444   0.39224   0.39760   0.40641
 Alpha virt. eigenvalues --    0.41398   0.42844   0.43975   0.44638   0.44677
 Alpha virt. eigenvalues --    0.44978   0.45414   0.46628   0.46718   0.47447
 Alpha virt. eigenvalues --    0.47679   0.48542   0.49326   0.49445   0.50177
 Alpha virt. eigenvalues --    0.50396   0.50821   0.51467   0.53416   0.54025
 Alpha virt. eigenvalues --    0.55031   0.55504   0.56204   0.57948   0.59068
 Alpha virt. eigenvalues --    0.61807   0.62311   0.67492   0.68478   0.71570
 Alpha virt. eigenvalues --    0.74449   0.75735   0.76869   0.79664   0.81891
 Alpha virt. eigenvalues --    0.82373   0.83127   0.85459   0.90641   0.91865
 Alpha virt. eigenvalues --    2.18215   2.22903   2.25791   2.28690   2.29856
 Alpha virt. eigenvalues --    2.33785   2.36923   4.41001   4.41439   4.41909
 Alpha virt. eigenvalues --    4.42918   4.43791   4.46317   4.47048   4.48744
 Alpha virt. eigenvalues --    4.50613   4.55296   4.59483   4.64263   4.68229
 Alpha virt. eigenvalues --    4.74847   4.75990   4.80547   4.82578   4.86562
 Alpha virt. eigenvalues --    4.88479   4.90093   5.01460  96.41779  96.49621
 Alpha virt. eigenvalues --   96.54980  96.57678  96.59059  96.65233  96.69726
  Beta  occ. eigenvalues --  -38.44606 -38.44520 -38.44178 -38.43726 -38.43715
  Beta  occ. eigenvalues --  -38.43698 -38.43447  -2.20869  -2.20611  -2.20536
  Beta  occ. eigenvalues --   -2.19949  -2.19884  -2.19790  -2.19673  -1.14848
  Beta  occ. eigenvalues --   -1.14726  -1.14640  -1.14527  -1.14388  -1.14353
  Beta  occ. eigenvalues --   -1.14262  -1.14254  -1.14073  -1.13716  -1.13566
  Beta  occ. eigenvalues --   -1.13532  -1.13511  -1.13499  -1.13429  -1.13409
  Beta  occ. eigenvalues --   -1.13406  -1.13335  -1.13318  -1.13223  -1.13150
  Beta  occ. eigenvalues --   -0.21170  -0.13948  -0.12359
  Beta virt. eigenvalues --   -0.08068  -0.05429  -0.04182  -0.03695  -0.02960
  Beta virt. eigenvalues --   -0.02157  -0.01617  -0.01133  -0.00405   0.00041
  Beta virt. eigenvalues --    0.00339   0.00836   0.00888   0.01071   0.01160
  Beta virt. eigenvalues --    0.01239   0.01380   0.01461   0.01528   0.01538
  Beta virt. eigenvalues --    0.01640   0.01779   0.01834   0.01990   0.02068
  Beta virt. eigenvalues --    0.02167   0.02646   0.02775   0.02937   0.03040
  Beta virt. eigenvalues --    0.03096   0.03124   0.03127   0.03191   0.03389
  Beta virt. eigenvalues --    0.03413   0.03586   0.03631   0.04111   0.04152
  Beta virt. eigenvalues --    0.04249   0.05041   0.05172   0.05205   0.05370
  Beta virt. eigenvalues --    0.05528   0.05690   0.05834   0.06109   0.06167
  Beta virt. eigenvalues --    0.06434   0.06859   0.07116   0.07491   0.07695
  Beta virt. eigenvalues --    0.08103   0.08422   0.08970   0.09325   0.09529
  Beta virt. eigenvalues --    0.10196   0.10525   0.12446   0.12798   0.13065
  Beta virt. eigenvalues --    0.13144   0.13499   0.13632   0.14016   0.14369
  Beta virt. eigenvalues --    0.14678   0.14983   0.15138   0.15479   0.16358
  Beta virt. eigenvalues --    0.16621   0.17120   0.17308   0.18823   0.19881
  Beta virt. eigenvalues --    0.23538   0.25346   0.27964   0.29151   0.29508
  Beta virt. eigenvalues --    0.30413   0.30696   0.31783   0.34122   0.35323
  Beta virt. eigenvalues --    0.35984   0.36414   0.38610   0.39668   0.39913
  Beta virt. eigenvalues --    0.40918   0.41668   0.43265   0.44141   0.44713
  Beta virt. eigenvalues --    0.44879   0.45206   0.45606   0.46818   0.46969
  Beta virt. eigenvalues --    0.47756   0.47812   0.48679   0.49547   0.49564
  Beta virt. eigenvalues --    0.50331   0.50622   0.51018   0.51636   0.53760
  Beta virt. eigenvalues --    0.54238   0.55320   0.55865   0.56536   0.58449
  Beta virt. eigenvalues --    0.59269   0.62010   0.62449   0.67566   0.68876
  Beta virt. eigenvalues --    0.71843   0.74856   0.76001   0.77099   0.79824
  Beta virt. eigenvalues --    0.82000   0.82498   0.83363   0.85724   0.90805
  Beta virt. eigenvalues --    0.92016   2.18243   2.22941   2.25887   2.28760
  Beta virt. eigenvalues --    2.29959   2.34036   2.37293   4.41100   4.41508
  Beta virt. eigenvalues --    4.41985   4.42991   4.43833   4.46373   4.47124
  Beta virt. eigenvalues --    4.48834   4.50685   4.55410   4.59525   4.64322
  Beta virt. eigenvalues --    4.68298   4.74923   4.76051   4.80621   4.82639
  Beta virt. eigenvalues --    4.86641   4.88567   4.90145   5.01515  96.41799
  Beta virt. eigenvalues --   96.49635  96.55013  96.57703  96.59102  96.65322
  Beta virt. eigenvalues --   96.69840
          Condensed to atoms (all electrons):
               1          2          3          4          5          6
     1  Na  14.406671   0.302285  -2.624259   0.513183   0.667196   0.150103
     2  Na   0.302285  12.222246  -0.110497  -0.652091  -0.616191   0.363909
     3  Na  -2.624259  -0.110497  14.783872  -0.290057  -1.401656  -0.780186
     4  Na   0.513183  -0.652091  -0.290057  13.331392  -0.382635   0.319429
     5  Na   0.667196  -0.616191  -1.401656  -0.382635  13.126875  -0.085100
     6  Na   0.150103   0.363909  -0.780186   0.319429  -0.085100  12.322935
     7  Na  -2.480561   0.003282   1.492720  -0.938861  -1.004979  -1.551169
               7
     1  Na  -2.480561
     2  Na   0.003282
     3  Na   1.492720
     4  Na  -0.938861
     5  Na  -1.004979
     6  Na  -1.551169
     7  Na  15.018282
          Atomic-Atomic Spin Densities.
               1          2          3          4          5          6
     1  Na  -0.420068  -0.007298   0.350729  -0.071868  -0.035661  -0.094931
     2  Na  -0.007298   0.831627   0.142422  -0.717281  -0.370300   0.329980
     3  Na   0.350729   0.142422  -0.339022  -0.007694  -0.140017   0.311137
     4  Na  -0.071868  -0.717281  -0.007694   0.967066   0.279734  -0.297573
     5  Na  -0.035661  -0.370300  -0.140017   0.279734   0.525002  -0.272608
     6  Na  -0.094931   0.329980   0.311137  -0.297573  -0.272608   0.011221
     7  Na   0.463692   0.078296  -0.374439   0.173747  -0.010129   0.231092
               7
     1  Na   0.463692
     2  Na   0.078296
     3  Na  -0.374439
     4  Na   0.173747
     5  Na  -0.010129
     6  Na   0.231092
     7  Na  -0.497884
 Mulliken charges and spin densities:
               1          2
     1  Na   0.065382   0.184594
     2  Na  -0.512941   0.287446
     3  Na  -0.069937  -0.056885
     4  Na  -0.900360   0.326130
     5  Na   0.696491  -0.023978
     6  Na   0.260079   0.218318
     7  Na   0.461286   0.064375
 Sum of Mulliken charges =  -0.00000   1.00000
 Mulliken charges and spin densities with hydrogens summed into heavy atoms:
               1          2
     1  Na   0.065382   0.184594
     2  Na  -0.512941   0.287446
     3  Na  -0.069937  -0.056885
     4  Na  -0.900360   0.326130
     5  Na   0.696491  -0.023978
     6  Na   0.260079   0.218318
     7  Na   0.461286   0.064375
 Electronic spatial extent (au):  <R**2>=           1495.9587
 Charge=             -0.0000 electrons
 Dipole moment (field-independent basis, Debye):
    X=              0.0179    Y=             -0.1502    Z=             -0.0602  Tot=              0.1628
 Quadrupole moment (field-independent basis, Debye-Ang):
   XX=            -57.2061   YY=            -71.6283   ZZ=            -68.4040
   XY=             -0.4473   XZ=             -1.0494   YZ=              0.1863
 Traceless Quadrupole moment (field-independent basis, Debye-Ang):
   XX=              8.5400   YY=             -5.8821   ZZ=             -2.6579
   XY=             -0.4473   XZ=             -1.0494   YZ=              0.1863
 Octapole moment (field-independent basis, Debye-Ang**2):
  XXX=            -10.9006  YYY=              1.7391  ZZZ=              1.3577  XYY=              4.4141
  XXY=             -5.5560  XXZ=             -7.3332  XZZ=              4.3995  YZZ=             -1.4733
  YYZ=              1.3485  XYZ=              0.0470
 Hexadecapole moment (field-independent basis, Debye-Ang**3):
 XXXX=          -1041.6753 YYYY=           -945.7492 ZZZZ=           -610.4867 XXXY=            -14.6501
 XXXZ=             -7.5124 YYYX=              0.2778 YYYZ=             -8.9233 ZZZX=             13.0272
 ZZZY=              4.6101 XXYY=           -327.8718 XXZZ=           -308.5596 YYZZ=           -271.7729
 XXYZ=             11.7240 YYXZ=            -29.2715 ZZXY=              0.2491
 N-N= 4.261254404077D+02 E-N=-3.581664215836D+03  KE= 1.133660982319D+03
                          Isotropic Fermi Contact Couplings
        Atom                 a.u.       MegaHertz       Gauss      10(-4) cm-1
     1  Na(23)             0.01216      14.38045       5.13130       4.79680
     2  Na(23)             0.34004     402.27719     143.54251     134.18523
     3  Na(23)             0.02077      24.57372       8.76851       8.19691
     4  Na(23)             0.30982     366.52601     130.78559     122.25992
     5  Na(23)            -0.00968     -11.45524      -4.08751      -3.82106
     6  Na(23)             0.04972      58.81483      20.98659      19.61852
     7  Na(23)             0.00803       9.49478       3.38797       3.16712
 --------------------------------------------------------
       Center         ----  Spin Dipole Couplings  ----
                      3XX-RR        3YY-RR        3ZZ-RR
 --------------------------------------------------------
     1   Atom       -0.031295     -0.027314      0.058609
     2   Atom        0.014466      0.002054     -0.016520
     3   Atom       -0.018870     -0.017833      0.036703
     4   Atom        0.011091     -0.004906     -0.006185
     5   Atom       -0.011347     -0.020487      0.031834
     6   Atom       -0.035704     -0.017930      0.053633
     7   Atom       -0.029117     -0.024496      0.053612
 --------------------------------------------------------
                        XY            XZ            YZ
 --------------------------------------------------------
     1   Atom       -0.007499      0.023711     -0.023407
     2   Atom        0.001387     -0.014541     -0.003173
     3   Atom       -0.005103      0.017058     -0.021123
     4   Atom        0.001988     -0.010922     -0.003800
     5   Atom        0.001495     -0.010466     -0.002294
     6   Atom        0.005321      0.017123      0.037340
     7   Atom        0.003082      0.006745      0.027587
 --------------------------------------------------------


 ---------------------------------------------------------------------------------
              Anisotropic Spin Dipole Couplings in Principal Axis System
 ---------------------------------------------------------------------------------

       Atom             a.u.   MegaHertz   Gauss  10(-4) cm-1        Axes

              Baa    -0.0378    -5.333    -1.903    -1.779  0.9293  0.3393 -0.1462
     1 Na(23) Bbb    -0.0329    -4.640    -1.656    -1.548 -0.2836  0.9088  0.3061
              Bcc     0.0706     9.973     3.559     3.327  0.2367 -0.2430  0.9407
 
              Baa    -0.0225    -3.180    -1.135    -1.061  0.3609  0.0994  0.9273
     2 Na(23) Bbb     0.0020     0.278     0.099     0.093 -0.1600  0.9862 -0.0434
              Bcc     0.0205     2.902     1.035     0.968  0.9188  0.1327 -0.3718
 
              Baa    -0.0253    -3.575    -1.276    -1.192 -0.3454  0.8552  0.3863
     3 Na(23) Bbb    -0.0233    -3.291    -1.174    -1.098  0.9032  0.4148 -0.1107
              Bcc     0.0486     6.866     2.450     2.290  0.2549 -0.3107  0.9157
 
              Baa    -0.0124    -1.750    -0.625    -0.584  0.3729  0.3392  0.8636
     4 Na(23) Bbb    -0.0045    -0.640    -0.228    -0.214 -0.2862  0.9274 -0.2407
              Bcc     0.0169     2.390     0.853     0.797  0.8826  0.1575 -0.4430
 
              Baa    -0.0207    -2.928    -1.045    -0.977 -0.1408  0.9899  0.0152
     5 Na(23) Bbb    -0.0136    -1.924    -0.686    -0.642  0.9643  0.1336  0.2288
              Bcc     0.0344     4.852     1.731     1.618 -0.2244 -0.0468  0.9734
 
              Baa    -0.0392    -5.542    -1.978    -1.849  0.9357  0.2320 -0.2658
     6 Na(23) Bbb    -0.0333    -4.697    -1.676    -1.567 -0.3130  0.8934 -0.3222
              Bcc     0.0725    10.239     3.654     3.415  0.1627  0.3847  0.9086
 
              Baa    -0.0335    -4.726    -1.686    -1.576 -0.2302  0.9327 -0.2776
     7 Na(23) Bbb    -0.0295    -4.165    -1.486    -1.389  0.9699  0.1965 -0.1440
              Bcc     0.0630     8.891     3.173     2.966  0.0797  0.3024  0.9498
 

 ---------------------------------------------------------------------------------

 No NMR shielding tensors so no spin-rotation constants.
 Leave Link  601 at Mon Nov 13 16:40:49 2023, MaxMem=  1879048192 cpu:               3.0 elap:               0.2
 (Enter /home/sekinelabo/g16/l701.exe)
 ... and contract with generalized density number  0.
 Compute integral first derivatives.
 Leave Link  701 at Mon Nov 13 16:40:49 2023, MaxMem=  1879048192 cpu:               1.7 elap:               0.1
 (Enter /home/sekinelabo/g16/l702.exe)
 L702 exits ... SP integral derivatives will be done elsewhere.
 Leave Link  702 at Mon Nov 13 16:40:49 2023, MaxMem=  1879048192 cpu:               0.4 elap:               0.0
 (Enter /home/sekinelabo/g16/l703.exe)
 Integral derivatives from FoFJK, PRISM(SPDF).
 Compute integral first derivatives, UseDBF=F ICtDFT=           0.
 Calling FoFJK, ICntrl=      2127 FMM=F ISym2X=0 I1Cent= 0 IOpClX= 1 NMat=1 NMatS=1 NMatT=0.
 FoFJK:  IHMeth= 1 ICntrl=    2127 DoSepK=F KAlg= 0 I1Cent=           0 FoldK=F
 IRaf=         0 NMat=       1 IRICut=       1 DoRegI=T DoRafI=F ISym2E= 0 IDoP0=0 IntGTp=1.
 FoFCou: FMM=F IPFlag=           0 FMFlag=      100000 FMFlg1=         800
         NFxFlg=           0 DoJE=F BraDBF=F KetDBF=F FulRan=T
         wScrn=  0.000000 ICntrl=      2127 IOpCl=  1 I1Cent=           0 NGrid=           0
         NMat0=    1 NMatS0=      1 NMatT0=    0 NMatD0=    1 NMtDS0=    0 NMtDT0=    0
 Symmetry not used in FoFCou.
 Leave Link  703 at Mon Nov 13 16:40:51 2023, MaxMem=  1879048192 cpu:              38.7 elap:               2.6
 (Enter /home/sekinelabo/g16/l716.exe)
 Dipole        = 7.05603352D-03-5.90821565D-02-2.37039750D-02
 ***** Axes restored to original set *****
 -------------------------------------------------------------------
 Center     Atomic                   Forces (Hartrees/Bohr)
 Number     Number              X              Y              Z
 -------------------------------------------------------------------
      1       11          -0.015505758    0.024400009    0.010891516
      2       11           0.011529633    0.003500221    0.029222812
      3       11           0.017116177   -0.013897639   -0.005487836
      4       11          -0.001743136   -0.003355584   -0.030429121
      5       11          -0.026255232   -0.003887682   -0.003451077
      6       11          -0.006884763   -0.030368950    0.009225834
      7       11           0.021743080    0.023609625   -0.009972128
 -------------------------------------------------------------------
 Cartesian Forces:  Max     0.030429121 RMS     0.017335340
 Z-matrix is all fixed cartesians, so copy forces.
 Force constants in Cartesian coordinates: 
                1             2             3             4             5 
      1  0.214688D+00
      2 -0.322295D-01  0.239133D+00
      3 -0.144809D-01  0.211113D-01  0.182605D+00
      4 -0.540360D-01  0.216823D-03 -0.345113D-01  0.207827D+00
      5  0.213488D-01 -0.519420D-01  0.365091D-01  0.523935D-03  0.206477D+00
      6  0.134597D-01 -0.169306D-01 -0.474124D-01  0.182151D-01  0.679964D-02
      7  0.131286D-02  0.160802D-01  0.706977D-02 -0.291611D-01 -0.335730D-04
      8  0.208747D-01  0.604796D-02 -0.759231D-02  0.133759D-01 -0.354783D-01
      9  0.628227D-02 -0.650410D-02  0.207479D-01  0.383965D-01 -0.308865D-01
     10 -0.383002D-01  0.115034D-01  0.250285D-01 -0.974144D-02 -0.283228D-02
     11  0.404924D-02 -0.464290D-01 -0.507697D-01  0.105513D-03 -0.229036D-02
     12 -0.850663D-02  0.564140D-02 -0.633337D-01 -0.439419D-02 -0.606571D-02
     13 -0.452280D-01  0.158848D-01  0.238481D-02 -0.596449D-02 -0.292826D-02
     14 -0.375789D-01 -0.607742D-01 -0.696034D-02 -0.330389D-02  0.135114D-01
     15 -0.181608D-01 -0.401587D-02 -0.437441D-01 -0.238498D-01 -0.115859D-02
     16 -0.912078D-02  0.170453D-01  0.151073D-02 -0.735332D-01 -0.241475D-01
     17 -0.989904D-02 -0.388818D-01  0.196389D-01 -0.352017D-02 -0.785391D-01
     18  0.765688D-02 -0.138930D-01 -0.320139D-02 -0.242490D-01 -0.489833D-01
     19 -0.693164D-01 -0.285010D-01  0.129984D-01 -0.353906D-01  0.806885D-02
     20  0.334347D-01 -0.471540D-01 -0.119369D-01 -0.739809D-02 -0.517389D-01
     21  0.137495D-01  0.145909D-01 -0.456615D-01  0.303927D-01  0.437855D-01
                6             7             8             9            10 
      6  0.268626D+00
      7 -0.152367D-01  0.151142D+00
      8  0.336407D-02 -0.346067D-01  0.139129D+00
      9 -0.598521D-01 -0.154157D-01  0.894197D-02  0.120618D+00
     10 -0.133171D-01 -0.577620D-01  0.361929D-03 -0.455138D-01  0.262920D+00
     11 -0.562467D-03  0.134729D-01 -0.465340D-01  0.245570D-01 -0.518633D-02
     12 -0.492876D-01  0.148805D-01 -0.124457D-01 -0.530858D-01  0.739149D-02
     13 -0.548483D-02 -0.448729D-02  0.360795D-02  0.846790D-04 -0.542509D-01
     14 -0.131211D-03  0.442285D-02  0.148060D-01 -0.866368D-03  0.272411D-02
     15  0.113695D-01  0.502332D-03 -0.934983D-03  0.151924D-01  0.468863D-01
     16  0.840223D-02 -0.394062D-01 -0.328959D-01  0.156462D-01 -0.442142D-01
     17  0.985034D-02  0.222090D-01 -0.325239D-01 -0.560278D-02 -0.769018D-03
     18 -0.583164D-01  0.415533D-02  0.175535D-01 -0.281287D-01  0.125791D-01
     19 -0.603845D-02 -0.216383D-01  0.292822D-01  0.519948D-03 -0.586510D-01
     20 -0.238979D-02 -0.215446D-01 -0.454472D-01  0.103608D-01 -0.580177D-02
     21 -0.651268D-01  0.404448D-02 -0.888661D-02 -0.154913D-01 -0.330545D-01
               11            12            13            14            15 
     11  0.252505D+00
     12  0.786266D-02  0.351406D+00
     13 -0.176073D-02 -0.154554D-01  0.163657D+00
     14 -0.455910D-01 -0.237299D-02  0.620390D-02  0.117429D+00
     15  0.425866D-02 -0.608029D-01  0.125627D-01  0.145719D-03  0.107215D+00
     16  0.105231D-02 -0.257857D-02 -0.517554D-01  0.376205D-01 -0.205500D-01
     17 -0.494850D-01 -0.646386D-02 -0.130152D-01 -0.516391D-01  0.305351D-02
     18  0.539382D-01 -0.743780D-01  0.417523D-02  0.107711D-01 -0.473528D-01
     19 -0.117329D-01  0.866281D-02 -0.197057D-02 -0.100886D-01  0.260920D-02
     20 -0.621753D-01  0.138442D-01 -0.799246D-02  0.122577D-01 -0.134845D-02
     21 -0.392844D-01 -0.505179D-01  0.173277D-02 -0.585895D-03  0.181227D-01
               16            17            18            19            20 
     16  0.203584D+00
     17  0.226705D-01  0.254497D+00
     18 -0.626542D-02 -0.300021D-01  0.195154D+00
     19  0.144455D-01 -0.176761D-01  0.194796D-02  0.172521D+00
     20 -0.213452D-01 -0.342807D-02  0.106157D-01  0.306475D-01  0.197686D+00
     21  0.383490D-02  0.952601D-02  0.162229D-01 -0.206998D-01 -0.191455D-01
               21 
     21  0.142452D+00
 Leave Link  716 at Mon Nov 13 16:40:51 2023, MaxMem=  1879048192 cpu:               0.5 elap:               0.0
 (Enter /home/sekinelabo/g16/l103.exe)

 GradGradGradGradGradGradGradGradGradGradGradGradGradGradGradGradGradGrad
 Berny optimization.
 Search for a local minimum.
 Step number   1 out of a maximum of    2
 All quantities printed in internal units (Hartrees-Bohrs-Radians)
 Second derivative matrix not updated -- first step.
 ITU=  0
     Eigenvalues ---    0.13977   0.16176   0.18225   0.19637   0.21458
     Eigenvalues ---    0.23581   0.26606   0.29251   0.29739   0.31317
     Eigenvalues ---    0.32483   0.35038   0.35583   0.36857   0.41838
 Quadratic step=4.275D-01 exceeds max=3.000D-01 adjusted using Lamda=-7.252D-02.
 Angle between NR and scaled steps=   3.77 degrees.
 Angle between quadratic step and forces=  13.30 degrees.
 Linear search not attempted -- first point.
 B after Tr=     0.000000   -0.000000    0.000000
         Rot=    1.000000   -0.000000   -0.000000   -0.000000 Ang=   0.00 deg.
 Variable       Old X    -DE/DX   Delta X   Delta X   Delta X     New X
                                 (Linear)    (Quad)   (Total)
    X1        3.19968  -0.01551   0.00000  -0.05609  -0.05609   3.14359
    Y1        6.51680   0.02440   0.00000   0.08958   0.08958   6.60639
    Z1        3.72047   0.01089   0.00000   0.03139   0.03139   3.75185
    X2        7.02802   0.01153   0.00000   0.04876   0.04876   7.07678
    Y2        3.45983   0.00350   0.00000   0.00889   0.00889   3.46873
    Z2        5.88687   0.02922   0.00000   0.08695   0.08695   5.97382
    X3        9.44196   0.01712   0.00000   0.09374   0.09374   9.53569
    Y3        0.84416  -0.01390   0.00000  -0.06533  -0.06533   0.77882
    Z3        1.79087  -0.00549   0.00000  -0.02284  -0.02284   1.76803
    X4        4.83721  -0.00174   0.00000  -0.00793  -0.00793   4.82928
    Y4        3.04167  -0.00336   0.00000  -0.00736  -0.00736   3.03431
    Z4        0.00000  -0.03043   0.00000  -0.07875  -0.07875  -0.07875
    X5        0.00000  -0.02626   0.00000  -0.13557  -0.13557  -0.13557
    Y5        2.66150  -0.00389   0.00000  -0.02182  -0.02182   2.63967
    Z5        2.15917  -0.00345   0.00000  -0.01869  -0.01869   2.14048
    X6        4.08296  -0.00688   0.00000  -0.02808  -0.02808   4.05489
    Y6        0.00000  -0.03037   0.00000  -0.09917  -0.09917  -0.09917
    Z6        4.09531   0.00923   0.00000   0.03153   0.03153   4.12684
    X7        8.06548   0.02174   0.00000   0.08518   0.08518   8.15066
    Y7        6.60165   0.02361   0.00000   0.09521   0.09521   6.69686
    Z7        1.95480  -0.00997   0.00000  -0.02959  -0.02959   1.92522
         Item               Value     Threshold  Converged?
 Maximum Force            0.030429     0.000450     NO 
 RMS     Force            0.017335     0.000300     NO 
 Maximum Displacement     0.135573     0.001800     NO 
 RMS     Displacement     0.065497     0.001200     NO 
 Predicted change in Energy=-1.486829D-02
 GradGradGradGradGradGradGradGradGradGradGradGradGradGradGradGradGradGrad

 Leave Link  103 at Mon Nov 13 16:40:51 2023, MaxMem=  1879048192 cpu:               0.3 elap:               0.0
 (Enter /home/sekinelabo/g16/l9999.exe)
 1\1\GINC-SEKINELABO-XA7R-R37\Force\UB3LYP\6-311+G(d)\Na7(2)\SEKINELABO
 \13-Nov-2023\0\\#P B3LYP/6-311+g(d) force\\Gaussian input prepared by 
 ASE\\0,2\Na,1.6931964928,3.4485432429,1.9687858658\Na,3.7190661123,1.8
 308644297,3.1151961456\Na,4.9964688512,0.446708138,0.9476887161\Na,2.5
 597413931,1.6095832507,0.\Na,0.,1.4084031296,1.1425823485\Na,2.1606107
 438,0.,2.1671450555\Na,4.2680698056,3.4934429751,1.0344379479\\Version
 =ES64L-G16RevB.01\State=2-A\HF=-1136.0579459\S2=0.758894\S2-1=0.\S2A=0
 .750052\RMSD=5.135e-09\RMSF=1.734e-02\Dipole=0.007056,-0.0590822,-0.02
 3704\Quadrupole=6.349296,-4.3732292,-1.9760667,-0.3325488,-0.780221,0.
 1385308\PG=C01 [X(Na7)]\\@


 Discoveries are often made by not following instructions,
 by going off the main road, by trying the untried.
 -- Frank Tyger
 Job cpu time:       0 days  0 hours  4 minutes 14.7 seconds.
 Elapsed time:       0 days  0 hours  0 minutes 20.8 seconds.
 File lengths (MBytes):  RWF=     32 Int=      0 D2E=      0 Chk=      5 Scr=      1
 Normal termination of Gaussian 16 at Mon Nov 13 16:40:51 2023.
