 Entering Gaussian System, Link 0=g16
 Initial command:
 /home/sekinelabo/g16/l1.exe "/home/sekinelabo/g16temp/Gau-4154639.inp" -scrdir="/home/sekinelabo/g16temp/"
 Entering Link 1 = /home/sekinelabo/g16/l1.exe PID=   4154641.
  
 Copyright (c) 1988-2017, Gaussian, Inc.  All Rights Reserved.
  
 This is part of the Gaussian(R) 16 program.  It is based on
 the Gaussian(R) 09 system (copyright 2009, Gaussian, Inc.),
 the Gaussian(R) 03 system (copyright 2003, Gaussian, Inc.),
 the Gaussian(R) 98 system (copyright 1998, Gaussian, Inc.),
 the Gaussian(R) 94 system (copyright 1995, Gaussian, Inc.),
 the Gaussian 92(TM) system (copyright 1992, Gaussian, Inc.),
 the Gaussian 90(TM) system (copyright 1990, Gaussian, Inc.),
 the Gaussian 88(TM) system (copyright 1988, Gaussian, Inc.),
 the Gaussian 86(TM) system (copyright 1986, Carnegie Mellon
 University), and the Gaussian 82(TM) system (copyright 1983,
 Carnegie Mellon University). Gaussian is a federally registered
 trademark of Gaussian, Inc.
  
 This software contains proprietary and confidential information,
 including trade secrets, belonging to Gaussian, Inc.
  
 This software is provided under written license and may be
 used, copied, transmitted, or stored only in accord with that
 written license.
  
 The following legend is applicable only to US Government
 contracts under FAR:
  
                    RESTRICTED RIGHTS LEGEND
  
 Use, reproduction and disclosure by the US Government is
 subject to restrictions as set forth in subparagraphs (a)
 and (c) of the Commercial Computer Software - Restricted
 Rights clause in FAR 52.227-19.
  
 Gaussian, Inc.
 340 Quinnipiac St., Bldg. 40, Wallingford CT 06492
  
  
 ---------------------------------------------------------------
 Warning -- This program may not be used in any manner that
 competes with the business of Gaussian, Inc. or will provide
 assistance to any competitor of Gaussian, Inc.  The licensee
 of this program is prohibited from giving any competitor of
 Gaussian, Inc. access to this program.  By using this program,
 the user acknowledges that Gaussian, Inc. is engaged in the
 business of creating and licensing software in the field of
 computational chemistry and represents and warrants to the
 licensee that it is not a competitor of Gaussian, Inc. and that
 it will not use this program in any manner prohibited above.
 ---------------------------------------------------------------
  

 Cite this work as:
 Gaussian 16, Revision B.01,
 M. J. Frisch, G. W. Trucks, H. B. Schlegel, G. E. Scuseria, 
 M. A. Robb, J. R. Cheeseman, G. Scalmani, V. Barone, 
 G. A. Petersson, H. Nakatsuji, X. Li, M. Caricato, A. V. Marenich, 
 J. Bloino, B. G. Janesko, R. Gomperts, B. Mennucci, H. P. Hratchian, 
 J. V. Ortiz, A. F. Izmaylov, J. L. Sonnenberg, D. Williams-Young, 
 F. Ding, F. Lipparini, F. Egidi, J. Goings, B. Peng, A. Petrone, 
 T. Henderson, D. Ranasinghe, V. G. Zakrzewski, J. Gao, N. Rega, 
 G. Zheng, W. Liang, M. Hada, M. Ehara, K. Toyota, R. Fukuda, 
 J. Hasegawa, M. Ishida, T. Nakajima, Y. Honda, O. Kitao, H. Nakai, 
 T. Vreven, K. Throssell, J. A. Montgomery, Jr., J. E. Peralta, 
 F. Ogliaro, M. J. Bearpark, J. J. Heyd, E. N. Brothers, K. N. Kudin, 
 V. N. Staroverov, T. A. Keith, R. Kobayashi, J. Normand, 
 K. Raghavachari, A. P. Rendell, J. C. Burant, S. S. Iyengar, 
 J. Tomasi, M. Cossi, J. M. Millam, M. Klene, C. Adamo, R. Cammi, 
 J. W. Ochterski, R. L. Martin, K. Morokuma, O. Farkas, 
 J. B. Foresman, and D. J. Fox, Gaussian, Inc., Wallingford CT, 2016.
 
 ******************************************
 Gaussian 16:  ES64L-G16RevB.01 20-Dec-2017
                13-Nov-2023 
 ******************************************
 %mem=14GB
 %chk=checkpoint.chk
 %nprocshared=16
 Will use up to   16 processors via shared memory.
 -------------------------
 #P B3LYP/6-311+g(d) force
 -------------------------
 1/10=7,30=1,38=1/1,3;
 2/12=2,17=6,18=5,40=1/2;
 3/5=4,6=6,7=11,11=2,25=1,30=1,71=1,74=-5/1,2,3;
 4//1;
 5/5=2,38=5/2;
 6/7=2,8=2,9=2,10=2,28=1/1;
 7/29=1/1,2,3,16;
 1/10=7,30=1/3;
 99//99;
 Leave Link    1 at Mon Nov 13 19:38:28 2023, MaxMem=  1879048192 cpu:               0.3 elap:               0.0
 (Enter /home/sekinelabo/g16/l101.exe)
 ------------------------------
 Gaussian input prepared by ASE
 ------------------------------
 Symbolic Z-matrix:
 Charge =  0 Multiplicity = 2
 Na                    2.91941   2.52258   2.56347 
 Na                    2.87242   1.48804   0. 
 Na                    0.        2.47972   2.49453 
 Na                    1.3342    0.        1.71711 
 Na                    2.96284   0.11966   3.92065 
 Na                    4.50555   0.02363   1.65015 
 Na                    5.83691   2.48865   2.47037 
 
 ITRead=  0  0  0  0  0  0  0
 MicOpt= -1 -1 -1 -1 -1 -1 -1
 NAtoms=      7 NQM=        7 NQMF=       0 NMMI=      0 NMMIF=      0
                NMic=       0 NMicF=      0.
                    Isotopes and Nuclear Properties:
 (Nuclear quadrupole moments (NQMom) in fm**2, nuclear magnetic moments (NMagM)
  in nuclear magnetons)

  Atom         1           2           3           4           5           6           7
 IAtWgt=          23          23          23          23          23          23          23
 AtmWgt=  22.9897697  22.9897697  22.9897697  22.9897697  22.9897697  22.9897697  22.9897697
 NucSpn=           3           3           3           3           3           3           3
 AtZEff=  -0.0000000  -0.0000000  -0.0000000  -0.0000000  -0.0000000  -0.0000000  -0.0000000
 NQMom=   10.4000000  10.4000000  10.4000000  10.4000000  10.4000000  10.4000000  10.4000000
 NMagM=    2.2175200   2.2175200   2.2175200   2.2175200   2.2175200   2.2175200   2.2175200
 AtZNuc=  11.0000000  11.0000000  11.0000000  11.0000000  11.0000000  11.0000000  11.0000000
 Leave Link  101 at Mon Nov 13 19:38:28 2023, MaxMem=  1879048192 cpu:               2.6 elap:               0.2
 (Enter /home/sekinelabo/g16/l103.exe)

 GradGradGradGradGradGradGradGradGradGradGradGradGradGradGradGradGradGrad
 Berny optimization.
 Initialization pass.
 Trust Radius=3.00D-01 FncErr=1.00D-07 GrdErr=1.00D-07 EigMax=2.50D+02 EigMin=1.00D-04
 Number of steps in this run=      2 maximum allowed number of steps=      2.
 GradGradGradGradGradGradGradGradGradGradGradGradGradGradGradGradGradGrad

 Leave Link  103 at Mon Nov 13 19:38:28 2023, MaxMem=  1879048192 cpu:               0.2 elap:               0.0
 (Enter /home/sekinelabo/g16/l202.exe)
                          Input orientation:                          
 ---------------------------------------------------------------------
 Center     Atomic      Atomic             Coordinates (Angstroms)
 Number     Number       Type             X           Y           Z
 ---------------------------------------------------------------------
      1         11           0        2.919412    2.522575    2.563470
      2         11           0        2.872424    1.488036    0.000000
      3         11           0        0.000000    2.479724    2.494532
      4         11           0        1.334197    0.000000    1.717115
      5         11           0        2.962840    0.119661    3.920645
      6         11           0        4.505549    0.023630    1.650152
      7         11           0        5.836912    2.488654    2.470367
 ---------------------------------------------------------------------
                    Distance matrix (angstroms):
                    1          2          3          4          5
     1  Na   0.000000
     2  Na   2.764752   0.000000
     3  Na   2.920540   3.931533   0.000000
     4  Na   3.097194   2.743880   2.921213   0.000000
     5  Na   2.760038   4.153563   4.047483   2.742689   0.000000
     6  Na   3.097532   2.744921   5.200514   3.172147   2.746691
     7  Na   2.919182   3.986495   5.836969   5.199542   3.996965
                    6          7
     6  Na   0.000000
     7  Na   2.919182   0.000000
 Stoichiometry    Na7(2)
 Framework group  C1[X(Na7)]
 Deg. of freedom    15
 Full point group                 C1      NOp   1
 Largest Abelian subgroup         C1      NOp   1
 Largest concise Abelian subgroup C1      NOp   1
                         Standard orientation:                         
 ---------------------------------------------------------------------
 Center     Atomic      Atomic             Coordinates (Angstroms)
 Number     Number       Type             X           Y           Z
 ---------------------------------------------------------------------
      1         11           0        0.000650   -1.219392   -0.446858
      2         11           0       -0.046338   -0.184854    2.116612
      3         11           0       -2.918762   -1.176541   -0.377920
      4         11           0       -1.584565    1.303183    0.399497
      5         11           0        0.044078    1.183522   -1.804034
      6         11           0        1.586787    1.279553    0.466459
      7         11           0        2.918150   -1.185471   -0.353756
 ---------------------------------------------------------------------
 Rotational constants (GHZ):           1.2471538           0.7172894           0.7065113
 Leave Link  202 at Mon Nov 13 19:38:28 2023, MaxMem=  1879048192 cpu:               0.1 elap:               0.0
 (Enter /home/sekinelabo/g16/l301.exe)
 Standard basis: 6-311+G(d) (5D, 7F)
 Ernie: Thresh=  0.10000D-02 Tol=  0.10000D-05 Strict=F.
 There are   217 symmetry adapted cartesian basis functions of A   symmetry.
 There are   210 symmetry adapted basis functions of A   symmetry.
   210 basis functions,   350 primitive gaussians,   217 cartesian basis functions
    39 alpha electrons       38 beta electrons
       nuclear repulsion energy       404.1217569762 Hartrees.
 IExCor=  402 DFT=T Ex+Corr=B3LYP ExCW=0 ScaHFX=  0.200000
 ScaDFX=  0.800000  0.720000  1.000000  0.810000 ScalE2=  1.000000  1.000000
 IRadAn=      5 IRanWt=     -1 IRanGd=            0 ICorTp=0 IEmpDi=  4
 NAtoms=    7 NActive=    7 NUniq=    7 SFac= 1.00D+00 NAtFMM=   60 NAOKFM=F Big=F
 Integral buffers will be    131072 words long.
 Raffenetti 2 integral format.
 Two-electron integral symmetry is turned on.
 Leave Link  301 at Mon Nov 13 19:38:28 2023, MaxMem=  1879048192 cpu:               0.5 elap:               0.0
 (Enter /home/sekinelabo/g16/l302.exe)
 NPDir=0 NMtPBC=     1 NCelOv=     1 NCel=       1 NClECP=     1 NCelD=      1
         NCelK=      1 NCelE2=     1 NClLst=     1 CellRange=     0.0.
 One-electron integrals computed using PRISM.
 One-electron integral symmetry used in STVInt
 NBasis=   210 RedAO= T EigKep=  3.91D-06  NBF=   210
 NBsUse=   208 1.00D-06 EigRej=  8.89D-07 NBFU=   208
 Precomputing XC quadrature grid using
 IXCGrd= 4 IRadAn=           5 IRanWt=          -1 IRanGd=           0 AccXCQ= 0.00D+00.
 Generated NRdTot=       0 NPtTot=           0 NUsed=           0 NTot=          32
 NSgBfM=   212   212   212   212   212 MxSgAt=     7 MxSgA2=     7.
 Leave Link  302 at Mon Nov 13 19:38:28 2023, MaxMem=  1879048192 cpu:               2.2 elap:               0.1
 (Enter /home/sekinelabo/g16/l303.exe)
 DipDrv:  MaxL=1.
 Leave Link  303 at Mon Nov 13 19:38:28 2023, MaxMem=  1879048192 cpu:               0.6 elap:               0.0
 (Enter /home/sekinelabo/g16/l401.exe)
 ExpMin= 7.60D-03 ExpMax= 3.62D+04 ExpMxC= 1.21D+03 IAcc=3 IRadAn=         5 AccDes= 0.00D+00
 Harris functional with IExCor=  402 and IRadAn=       5 diagonalized for initial guess.
 HarFok:  IExCor=  402 AccDes= 0.00D+00 IRadAn=         5 IDoV= 1 UseB2=F ITyADJ=14
 ICtDFT=  3500011 ScaDFX=  1.000000  1.000000  1.000000  1.000000
 FoFCou: FMM=F IPFlag=           0 FMFlag=      100000 FMFlg1=           0
         NFxFlg=           0 DoJE=T BraDBF=F KetDBF=T FulRan=T
         wScrn=  0.000000 ICntrl=       500 IOpCl=  0 I1Cent=   200000004 NGrid=           0
         NMat0=    1 NMatS0=      1 NMatT0=    0 NMatD0=    1 NMtDS0=    0 NMtDT0=    0
 Petite list used in FoFCou.
 Harris En= -1135.84911109950    
 JPrj=0 DoOrth=F DoCkMO=F.
 Initial guess <Sx>= 0.0000 <Sy>= 0.0000 <Sz>= 0.5000 <S**2>= 0.7500 S= 0.5000
 Leave Link  401 at Mon Nov 13 19:38:29 2023, MaxMem=  1879048192 cpu:               4.8 elap:               0.3
 (Enter /home/sekinelabo/g16/l502.exe)
 Keep R1 and R2 ints in memory in canonical form, NReq=507620388.
 FoFCou: FMM=F IPFlag=           0 FMFlag=           0 FMFlg1=           0
         NFxFlg=           0 DoJE=F BraDBF=F KetDBF=F FulRan=T
         wScrn=  0.000000 ICntrl=       600 IOpCl=  0 I1Cent=           0 NGrid=           0
         NMat0=    1 NMatS0=  22155 NMatT0=    0 NMatD0=    1 NMtDS0=    0 NMtDT0=    0
 Symmetry not used in FoFCou.
 Two-electron integral symmetry not used.
 UHF open shell SCF:
 Using DIIS extrapolation, IDIIS=  1040.
 NGot=  1879048192 LenX=  1388082348 LenY=  1388034818
 Requested convergence on RMS density matrix=1.00D-08 within 128 cycles.
 Requested convergence on MAX density matrix=1.00D-06.
 Requested convergence on             energy=1.00D-06.
 No special actions if energy rises.

 Cycle   1  Pass 1  IDiag  1:
 E= -1136.02223813099    
 DIIS: error= 1.58D-02 at cycle   1 NSaved=   1.
 NSaved= 1 IEnMin= 1 EnMin= -1136.02223813099     IErMin= 1 ErrMin= 1.58D-02
 ErrMax= 1.58D-02  0.00D+00 EMaxC= 1.00D-01 BMatC= 2.17D-01 BMatP= 2.17D-01
 IDIUse=3 WtCom= 8.42D-01 WtEn= 1.58D-01
 Coeff-Com:  0.100D+01
 Coeff-En:   0.100D+01
 Coeff:      0.100D+01
 Gap=     0.058 Goal=   None    Shift=    0.000
 Gap=     0.024 Goal=   None    Shift=    0.000
 GapD=    0.024 DampG=0.250 DampE=0.500 DampFc=0.2500 IDamp=-1.
 Damping current iteration by 2.50D-01
 RMSDP=7.45D-02 MaxDP=6.78D+00              OVMax= 2.87D-01

 Cycle   2  Pass 1  IDiag  1:
 E= -1136.04034952798     Delta-E=       -0.018111396997 Rises=F Damp=T
 DIIS: error= 1.00D-02 at cycle   2 NSaved=   2.
 NSaved= 2 IEnMin= 2 EnMin= -1136.04034952798     IErMin= 2 ErrMin= 1.00D-02
 ErrMax= 1.00D-02  0.00D+00 EMaxC= 1.00D-01 BMatC= 8.05D-02 BMatP= 2.17D-01
 IDIUse=3 WtCom= 9.00D-01 WtEn= 1.00D-01
 Coeff-Com: -0.122D+01 0.222D+01
 Coeff-En:   0.000D+00 0.100D+01
 Coeff:     -0.110D+01 0.210D+01
 Gap=     0.060 Goal=   None    Shift=    0.000
 Gap=     0.029 Goal=   None    Shift=    0.000
 RMSDP=3.64D-02 MaxDP=3.52D+00 DE=-1.81D-02 OVMax= 2.01D-01

 Cycle   3  Pass 1  IDiag  1:
 E= -1136.06915800783     Delta-E=       -0.028808479847 Rises=F Damp=F
 DIIS: error= 4.69D-03 at cycle   3 NSaved=   3.
 NSaved= 3 IEnMin= 3 EnMin= -1136.06915800783     IErMin= 3 ErrMin= 4.69D-03
 ErrMax= 4.69D-03  0.00D+00 EMaxC= 1.00D-01 BMatC= 7.23D-03 BMatP= 8.05D-02
 IDIUse=3 WtCom= 9.53D-01 WtEn= 4.69D-02
 Coeff-Com: -0.362D+00 0.660D+00 0.702D+00
 Coeff-En:   0.000D+00 0.000D+00 0.100D+01
 Coeff:     -0.345D+00 0.629D+00 0.716D+00
 Gap=     0.054 Goal=   None    Shift=    0.000
 Gap=     0.028 Goal=   None    Shift=    0.000
 RMSDP=1.24D-02 MaxDP=9.46D-01 DE=-2.88D-02 OVMax= 7.52D-02

 Cycle   4  Pass 1  IDiag  1:
 E= -1136.07098982124     Delta-E=       -0.001831813409 Rises=F Damp=F
 DIIS: error= 3.38D-03 at cycle   4 NSaved=   4.
 NSaved= 4 IEnMin= 4 EnMin= -1136.07098982124     IErMin= 4 ErrMin= 3.38D-03
 ErrMax= 3.38D-03  0.00D+00 EMaxC= 1.00D-01 BMatC= 3.56D-03 BMatP= 7.23D-03
 IDIUse=3 WtCom= 9.66D-01 WtEn= 3.38D-02
 Coeff-Com: -0.154D-02 0.470D-02 0.411D+00 0.586D+00
 Coeff-En:   0.000D+00 0.000D+00 0.370D+00 0.630D+00
 Coeff:     -0.149D-02 0.454D-02 0.409D+00 0.588D+00
 Gap=     0.056 Goal=   None    Shift=    0.000
 Gap=     0.028 Goal=   None    Shift=    0.000
 RMSDP=2.41D-03 MaxDP=1.41D-01 DE=-1.83D-03 OVMax= 3.73D-02

 Cycle   5  Pass 1  IDiag  1:
 E= -1136.07303186808     Delta-E=       -0.002042046842 Rises=F Damp=F
 DIIS: error= 6.88D-04 at cycle   5 NSaved=   5.
 NSaved= 5 IEnMin= 5 EnMin= -1136.07303186808     IErMin= 5 ErrMin= 6.88D-04
 ErrMax= 6.88D-04  0.00D+00 EMaxC= 1.00D-01 BMatC= 1.47D-04 BMatP= 3.56D-03
 IDIUse=3 WtCom= 9.93D-01 WtEn= 6.88D-03
 Coeff-Com:  0.143D-02-0.248D-02 0.239D+00 0.353D+00 0.409D+00
 Coeff-En:   0.000D+00 0.000D+00 0.000D+00 0.000D+00 0.100D+01
 Coeff:      0.142D-02-0.246D-02 0.237D+00 0.351D+00 0.413D+00
 Gap=     0.056 Goal=   None    Shift=    0.000
 Gap=     0.029 Goal=   None    Shift=    0.000
 RMSDP=6.57D-04 MaxDP=5.28D-02 DE=-2.04D-03 OVMax= 1.05D-02

 Cycle   6  Pass 1  IDiag  1:
 E= -1136.07316698112     Delta-E=       -0.000135113044 Rises=F Damp=F
 DIIS: error= 1.26D-04 at cycle   6 NSaved=   6.
 NSaved= 6 IEnMin= 6 EnMin= -1136.07316698112     IErMin= 6 ErrMin= 1.26D-04
 ErrMax= 1.26D-04  0.00D+00 EMaxC= 1.00D-01 BMatC= 3.87D-06 BMatP= 1.47D-04
 IDIUse=3 WtCom= 9.99D-01 WtEn= 1.26D-03
 Coeff-Com: -0.125D-02 0.119D-02-0.320D-01-0.512D-01 0.798D-01 0.100D+01
 Coeff-En:   0.000D+00 0.000D+00 0.000D+00 0.000D+00 0.000D+00 0.100D+01
 Coeff:     -0.125D-02 0.118D-02-0.320D-01-0.512D-01 0.797D-01 0.100D+01
 Gap=     0.056 Goal=   None    Shift=    0.000
 Gap=     0.029 Goal=   None    Shift=    0.000
 RMSDP=5.77D-04 MaxDP=5.39D-02 DE=-1.35D-04 OVMax= 8.58D-03

 Cycle   7  Pass 1  IDiag  1:
 E= -1136.07317676145     Delta-E=       -0.000009780326 Rises=F Damp=F
 DIIS: error= 5.73D-05 at cycle   7 NSaved=   7.
 NSaved= 7 IEnMin= 7 EnMin= -1136.07317676145     IErMin= 7 ErrMin= 5.73D-05
 ErrMax= 5.73D-05  0.00D+00 EMaxC= 1.00D-01 BMatC= 5.45D-07 BMatP= 3.87D-06
 IDIUse=1 WtCom= 1.00D+00 WtEn= 0.00D+00
 Coeff-Com: -0.127D-03 0.811D-04-0.196D-01-0.288D-01-0.789D-02 0.189D+00
 Coeff-Com:  0.868D+00
 Coeff:     -0.127D-03 0.811D-04-0.196D-01-0.288D-01-0.789D-02 0.189D+00
 Coeff:      0.868D+00
 Gap=     0.056 Goal=   None    Shift=    0.000
 Gap=     0.029 Goal=   None    Shift=    0.000
 RMSDP=9.74D-05 MaxDP=6.62D-03 DE=-9.78D-06 OVMax= 6.75D-03

 Cycle   8  Pass 1  IDiag  1:
 E= -1136.07318034188     Delta-E=       -0.000003580427 Rises=F Damp=F
 DIIS: error= 5.45D-05 at cycle   8 NSaved=   8.
 NSaved= 8 IEnMin= 8 EnMin= -1136.07318034188     IErMin= 8 ErrMin= 5.45D-05
 ErrMax= 5.45D-05  0.00D+00 EMaxC= 1.00D-01 BMatC= 4.54D-07 BMatP= 5.45D-07
 IDIUse=1 WtCom= 1.00D+00 WtEn= 0.00D+00
 Coeff-Com:  0.468D-03-0.572D-03-0.366D-02-0.399D-02-0.260D-01-0.140D+00
 Coeff-Com:  0.539D+00 0.635D+00
 Coeff:      0.468D-03-0.572D-03-0.366D-02-0.399D-02-0.260D-01-0.140D+00
 Coeff:      0.539D+00 0.635D+00
 Gap=     0.056 Goal=   None    Shift=    0.000
 Gap=     0.029 Goal=   None    Shift=    0.000
 RMSDP=9.75D-05 MaxDP=8.98D-03 DE=-3.58D-06 OVMax= 6.02D-03

 Cycle   9  Pass 1  IDiag  1:
 E= -1136.07318337776     Delta-E=       -0.000003035883 Rises=F Damp=F
 DIIS: error= 5.12D-05 at cycle   9 NSaved=   9.
 NSaved= 9 IEnMin= 9 EnMin= -1136.07318337776     IErMin= 9 ErrMin= 5.12D-05
 ErrMax= 5.12D-05  0.00D+00 EMaxC= 1.00D-01 BMatC= 2.33D-07 BMatP= 4.54D-07
 IDIUse=1 WtCom= 1.00D+00 WtEn= 0.00D+00
 Coeff-Com:  0.433D-03-0.540D-03 0.478D-02 0.651D-02-0.363D-02-0.640D-01
 Coeff-Com: -0.135D+00 0.148D+00 0.104D+01
 Coeff:      0.433D-03-0.540D-03 0.478D-02 0.651D-02-0.363D-02-0.640D-01
 Coeff:     -0.135D+00 0.148D+00 0.104D+01
 Gap=     0.056 Goal=   None    Shift=    0.000
 Gap=     0.029 Goal=   None    Shift=    0.000
 RMSDP=1.11D-04 MaxDP=8.63D-03 DE=-3.04D-06 OVMax= 8.13D-03

 Cycle  10  Pass 1  IDiag  1:
 E= -1136.07318698922     Delta-E=       -0.000003611464 Rises=F Damp=F
 DIIS: error= 4.75D-05 at cycle  10 NSaved=  10.
 NSaved=10 IEnMin=10 EnMin= -1136.07318698922     IErMin=10 ErrMin= 4.75D-05
 ErrMax= 4.75D-05  0.00D+00 EMaxC= 1.00D-01 BMatC= 1.94D-07 BMatP= 2.33D-07
 IDIUse=1 WtCom= 1.00D+00 WtEn= 0.00D+00
 Coeff-Com: -0.403D-05 0.193D-04 0.481D-02 0.493D-02 0.125D-01 0.506D-01
 Coeff-Com: -0.280D+00-0.289D+00 0.538D-01 0.144D+01
 Coeff:     -0.403D-05 0.193D-04 0.481D-02 0.493D-02 0.125D-01 0.506D-01
 Coeff:     -0.280D+00-0.289D+00 0.538D-01 0.144D+01
 Gap=     0.056 Goal=   None    Shift=    0.000
 Gap=     0.029 Goal=   None    Shift=    0.000
 RMSDP=1.70D-04 MaxDP=1.18D-02 DE=-3.61D-06 OVMax= 1.27D-02

 Cycle  11  Pass 1  IDiag  1:
 E= -1136.07319214948     Delta-E=       -0.000005160257 Rises=F Damp=F
 DIIS: error= 4.22D-05 at cycle  11 NSaved=  11.
 NSaved=11 IEnMin=11 EnMin= -1136.07319214948     IErMin=11 ErrMin= 4.22D-05
 ErrMax= 4.22D-05  0.00D+00 EMaxC= 1.00D-01 BMatC= 1.67D-07 BMatP= 1.94D-07
 IDIUse=1 WtCom= 1.00D+00 WtEn= 0.00D+00
 Coeff-Com: -0.473D-03 0.596D-03-0.155D-02-0.430D-02 0.194D-01 0.163D+00
 Coeff-Com: -0.104D+00-0.455D+00-0.136D+01 0.112D+01 0.162D+01
 Coeff:     -0.473D-03 0.596D-03-0.155D-02-0.430D-02 0.194D-01 0.163D+00
 Coeff:     -0.104D+00-0.455D+00-0.136D+01 0.112D+01 0.162D+01
 Gap=     0.056 Goal=   None    Shift=    0.000
 Gap=     0.029 Goal=   None    Shift=    0.000
 RMSDP=3.59D-04 MaxDP=2.82D-02 DE=-5.16D-06 OVMax= 2.65D-02

 Cycle  12  Pass 1  IDiag  1:
 E= -1136.07320112656     Delta-E=       -0.000008977075 Rises=F Damp=F
 DIIS: error= 3.18D-05 at cycle  12 NSaved=  12.
 NSaved=12 IEnMin=12 EnMin= -1136.07320112656     IErMin=12 ErrMin= 3.18D-05
 ErrMax= 3.18D-05  0.00D+00 EMaxC= 1.00D-01 BMatC= 1.42D-07 BMatP= 1.67D-07
 IDIUse=1 WtCom= 1.00D+00 WtEn= 0.00D+00
 Coeff-Com: -0.431D-03 0.529D-03-0.550D-02-0.892D-02 0.144D-01 0.173D+00
 Coeff-Com:  0.465D-01-0.292D+00-0.130D+01 0.539D-01 0.154D+01 0.775D+00
 Coeff:     -0.431D-03 0.529D-03-0.550D-02-0.892D-02 0.144D-01 0.173D+00
 Coeff:      0.465D-01-0.292D+00-0.130D+01 0.539D-01 0.154D+01 0.775D+00
 Gap=     0.056 Goal=   None    Shift=    0.000
 Gap=     0.029 Goal=   None    Shift=    0.000
 RMSDP=3.08D-04 MaxDP=2.44D-02 DE=-8.98D-06 OVMax= 2.26D-02

 Cycle  13  Pass 1  IDiag  1:
 E= -1136.07320697536     Delta-E=       -0.000005848803 Rises=F Damp=F
 DIIS: error= 2.30D-05 at cycle  13 NSaved=  13.
 NSaved=13 IEnMin=13 EnMin= -1136.07320697536     IErMin=13 ErrMin= 2.30D-05
 ErrMax= 2.30D-05  0.00D+00 EMaxC= 1.00D-01 BMatC= 7.77D-08 BMatP= 1.42D-07
 IDIUse=1 WtCom= 1.00D+00 WtEn= 0.00D+00
 Coeff-Com:  0.146D-03-0.175D-03-0.282D-02-0.378D-02 0.826D-03 0.636D-01
 Coeff-Com: -0.725D-03 0.664D-01 0.732D+00-0.688D+00-0.810D+00 0.265D+00
 Coeff-Com:  0.138D+01
 Coeff:      0.146D-03-0.175D-03-0.282D-02-0.378D-02 0.826D-03 0.636D-01
 Coeff:     -0.725D-03 0.664D-01 0.732D+00-0.688D+00-0.810D+00 0.265D+00
 Coeff:      0.138D+01
 Gap=     0.056 Goal=   None    Shift=    0.000
 Gap=     0.029 Goal=   None    Shift=    0.000
 RMSDP=2.51D-04 MaxDP=2.07D-02 DE=-5.85D-06 OVMax= 1.74D-02

 Cycle  14  Pass 1  IDiag  1:
 E= -1136.07321043826     Delta-E=       -0.000003462902 Rises=F Damp=F
 DIIS: error= 1.71D-05 at cycle  14 NSaved=  14.
 NSaved=14 IEnMin=14 EnMin= -1136.07321043826     IErMin=14 ErrMin= 1.71D-05
 ErrMax= 1.71D-05  0.00D+00 EMaxC= 1.00D-01 BMatC= 3.18D-08 BMatP= 7.77D-08
 IDIUse=1 WtCom= 1.00D+00 WtEn= 0.00D+00
 Coeff-Com:  0.216D-03-0.278D-03 0.628D-03 0.163D-02-0.213D-02-0.229D-01
 Coeff-Com: -0.218D-01 0.156D+00 0.713D+00-0.593D+00-0.866D+00-0.220D+00
 Coeff-Com:  0.355D+00 0.150D+01
 Coeff:      0.216D-03-0.278D-03 0.628D-03 0.163D-02-0.213D-02-0.229D-01
 Coeff:     -0.218D-01 0.156D+00 0.713D+00-0.593D+00-0.866D+00-0.220D+00
 Coeff:      0.355D+00 0.150D+01
 Gap=     0.056 Goal=   None    Shift=    0.000
 Gap=     0.029 Goal=   None    Shift=    0.000
 RMSDP=4.91D-04 MaxDP=3.90D-02 DE=-3.46D-06 OVMax= 3.56D-02

 Cycle  15  Pass 1  IDiag  1:
 E= -1136.07321408087     Delta-E=       -0.000003642609 Rises=F Damp=F
 DIIS: error= 1.90D-05 at cycle  15 NSaved=  15.
 NSaved=15 IEnMin=15 EnMin= -1136.07321408087     IErMin=14 ErrMin= 1.71D-05
 ErrMax= 1.90D-05  0.00D+00 EMaxC= 1.00D-01 BMatC= 4.28D-08 BMatP= 3.18D-08
 IDIUse=1 WtCom= 1.00D+00 WtEn= 0.00D+00
 Coeff-Com: -0.264D-03 0.346D-03 0.382D-03-0.352D-03 0.886D-02 0.636D-01
 Coeff-Com: -0.126D+00-0.218D+00-0.221D+00 0.482D+00 0.426D+00-0.303D+00
 Coeff-Com: -0.100D+01 0.973D+00 0.915D+00
 Coeff:     -0.264D-03 0.346D-03 0.382D-03-0.352D-03 0.886D-02 0.636D-01
 Coeff:     -0.126D+00-0.218D+00-0.221D+00 0.482D+00 0.426D+00-0.303D+00
 Coeff:     -0.100D+01 0.973D+00 0.915D+00
 Gap=     0.056 Goal=   None    Shift=    0.000
 Gap=     0.029 Goal=   None    Shift=    0.000
 RMSDP=8.48D-05 MaxDP=6.22D-03 DE=-3.64D-06 OVMax= 4.85D-03

 Cycle  16  Pass 1  IDiag  1:
 E= -1136.07321433226     Delta-E=       -0.000000251392 Rises=F Damp=F
 DIIS: error= 3.49D-06 at cycle  16 NSaved=  16.
 NSaved=16 IEnMin=16 EnMin= -1136.07321433226     IErMin=16 ErrMin= 3.49D-06
 ErrMax= 3.49D-06  0.00D+00 EMaxC= 1.00D-01 BMatC= 2.72D-09 BMatP= 3.18D-08
 IDIUse=1 WtCom= 1.00D+00 WtEn= 0.00D+00
 Coeff-Com: -0.120D-03 0.151D-03 0.477D-04-0.567D-03 0.299D-02 0.290D-01
 Coeff-Com: -0.187D-01-0.130D+00-0.419D+00 0.338D+00 0.480D+00 0.328D-01
 Coeff-Com: -0.393D+00-0.268D+00 0.914D-02 0.134D+01
 Coeff:     -0.120D-03 0.151D-03 0.477D-04-0.567D-03 0.299D-02 0.290D-01
 Coeff:     -0.187D-01-0.130D+00-0.419D+00 0.338D+00 0.480D+00 0.328D-01
 Coeff:     -0.393D+00-0.268D+00 0.914D-02 0.134D+01
 Gap=     0.056 Goal=   None    Shift=    0.000
 Gap=     0.029 Goal=   None    Shift=    0.000
 RMSDP=1.13D-04 MaxDP=9.01D-03 DE=-2.51D-07 OVMax= 7.96D-03

 Cycle  17  Pass 1  IDiag  1:
 E= -1136.07321445503     Delta-E=       -0.000000122766 Rises=F Damp=F
 DIIS: error= 1.01D-06 at cycle  17 NSaved=  17.
 NSaved=17 IEnMin=17 EnMin= -1136.07321445503     IErMin=17 ErrMin= 1.01D-06
 ErrMax= 1.01D-06  0.00D+00 EMaxC= 1.00D-01 BMatC= 2.99D-10 BMatP= 2.72D-09
 IDIUse=1 WtCom= 1.00D+00 WtEn= 0.00D+00
 Coeff-Com:  0.267D-04-0.368D-04-0.683D-04 0.343D-04-0.577D-03-0.597D-02
 Coeff-Com:  0.157D-01 0.235D-01-0.300D-02-0.691D-01-0.174D-01 0.533D-01
 Coeff-Com:  0.111D+00-0.113D+00-0.185D+00 0.228D+00 0.962D+00
 Coeff:      0.267D-04-0.368D-04-0.683D-04 0.343D-04-0.577D-03-0.597D-02
 Coeff:      0.157D-01 0.235D-01-0.300D-02-0.691D-01-0.174D-01 0.533D-01
 Coeff:      0.111D+00-0.113D+00-0.185D+00 0.228D+00 0.962D+00
 Gap=     0.056 Goal=   None    Shift=    0.000
 Gap=     0.029 Goal=   None    Shift=    0.000
 RMSDP=9.37D-06 MaxDP=7.24D-04 DE=-1.23D-07 OVMax= 5.48D-04

 Cycle  18  Pass 1  IDiag  1:
 E= -1136.07321445586     Delta-E=       -0.000000000838 Rises=F Damp=F
 DIIS: error= 8.08D-07 at cycle  18 NSaved=  18.
 NSaved=18 IEnMin=18 EnMin= -1136.07321445586     IErMin=18 ErrMin= 8.08D-07
 ErrMax= 8.08D-07  0.00D+00 EMaxC= 1.00D-01 BMatC= 1.31D-10 BMatP= 2.99D-10
 IDIUse=1 WtCom= 1.00D+00 WtEn= 0.00D+00
 Coeff-Com: -0.229D-05 0.366D-05-0.106D-03-0.707D-04-0.126D-03 0.836D-04
 Coeff-Com: -0.136D-02 0.764D-02 0.485D-01-0.323D-01-0.450D-01-0.622D-02
 Coeff-Com:  0.317D-01 0.496D-01-0.338D-01-0.164D+00 0.731D-01 0.107D+01
 Coeff:     -0.229D-05 0.366D-05-0.106D-03-0.707D-04-0.126D-03 0.836D-04
 Coeff:     -0.136D-02 0.764D-02 0.485D-01-0.323D-01-0.450D-01-0.622D-02
 Coeff:      0.317D-01 0.496D-01-0.338D-01-0.164D+00 0.731D-01 0.107D+01
 Gap=     0.056 Goal=   None    Shift=    0.000
 Gap=     0.029 Goal=   None    Shift=    0.000
 RMSDP=5.12D-06 MaxDP=3.90D-04 DE=-8.38D-10 OVMax= 2.81D-04

 Cycle  19  Pass 1  IDiag  1:
 E= -1136.07321445622     Delta-E=       -0.000000000359 Rises=F Damp=F
 DIIS: error= 5.06D-07 at cycle  19 NSaved=  19.
 NSaved=19 IEnMin=19 EnMin= -1136.07321445622     IErMin=19 ErrMin= 5.06D-07
 ErrMax= 5.06D-07  0.00D+00 EMaxC= 1.00D-01 BMatC= 3.89D-11 BMatP= 1.31D-10
 IDIUse=1 WtCom= 1.00D+00 WtEn= 0.00D+00
 Coeff-Com: -0.333D-06 0.786D-06 0.477D-04 0.341D-04 0.337D-04 0.106D-03
 Coeff-Com: -0.153D-02-0.408D-02-0.665D-02 0.198D-01 0.410D-02-0.796D-02
 Coeff-Com: -0.170D-01-0.260D-02 0.568D-01-0.314D-01-0.199D+00 0.331D-01
 Coeff-Com:  0.116D+01
 Coeff:     -0.333D-06 0.786D-06 0.477D-04 0.341D-04 0.337D-04 0.106D-03
 Coeff:     -0.153D-02-0.408D-02-0.665D-02 0.198D-01 0.410D-02-0.796D-02
 Coeff:     -0.170D-01-0.260D-02 0.568D-01-0.314D-01-0.199D+00 0.331D-01
 Coeff:      0.116D+01
 Gap=     0.056 Goal=   None    Shift=    0.000
 Gap=     0.029 Goal=   None    Shift=    0.000
 RMSDP=2.92D-06 MaxDP=2.35D-04 DE=-3.59D-10 OVMax= 2.02D-04

 Cycle  20  Pass 1  IDiag  1:
 E= -1136.07321445631     Delta-E=       -0.000000000090 Rises=F Damp=F
 DIIS: error= 7.59D-08 at cycle  20 NSaved=  20.
 NSaved=20 IEnMin=20 EnMin= -1136.07321445631     IErMin=20 ErrMin= 7.59D-08
 ErrMax= 7.59D-08  0.00D+00 EMaxC= 1.00D-01 BMatC= 1.54D-12 BMatP= 3.89D-11
 IDIUse=1 WtCom= 1.00D+00 WtEn= 0.00D+00
 Coeff-Com: -0.214D-05 0.268D-05 0.654D-05-0.221D-05 0.312D-04 0.273D-03
 Coeff-Com:  0.688D-04-0.105D-02-0.796D-02 0.380D-02 0.111D-01 0.168D-02
 Coeff-Com: -0.776D-02-0.646D-02 0.422D-02 0.247D-01 0.417D-02-0.151D+00
 Coeff-Com: -0.255D+00 0.138D+01
 Coeff:     -0.214D-05 0.268D-05 0.654D-05-0.221D-05 0.312D-04 0.273D-03
 Coeff:      0.688D-04-0.105D-02-0.796D-02 0.380D-02 0.111D-01 0.168D-02
 Coeff:     -0.776D-02-0.646D-02 0.422D-02 0.247D-01 0.417D-02-0.151D+00
 Coeff:     -0.255D+00 0.138D+01
 Gap=     0.056 Goal=   None    Shift=    0.000
 Gap=     0.029 Goal=   None    Shift=    0.000
 RMSDP=1.86D-06 MaxDP=1.64D-04 DE=-8.96D-11 OVMax= 1.34D-04

 Cycle  21  Pass 1  IDiag  1:
 E= -1136.07321445631     Delta-E=        0.000000000001 Rises=F Damp=F
 DIIS: error= 9.80D-08 at cycle  21 NSaved=  20.
 NSaved=20 IEnMin=19 EnMin= -1136.07321445631     IErMin=19 ErrMin= 7.59D-08
 ErrMax= 9.80D-08  0.00D+00 EMaxC= 1.00D-01 BMatC= 1.38D-12 BMatP= 1.54D-12
 IDIUse=1 WtCom= 1.00D+00 WtEn= 0.00D+00
 Coeff-Com:  0.881D-07-0.506D-05-0.367D-05-0.160D-04-0.125D-03 0.103D-03
 Coeff-Com:  0.472D-03 0.181D-02-0.161D-02-0.214D-02 0.455D-03 0.270D-02
 Coeff-Com: -0.150D-02-0.225D-02-0.217D-02 0.204D-01 0.277D-01-0.167D+00
 Coeff-Com: -0.672D-01 0.119D+01
 Coeff:      0.881D-07-0.506D-05-0.367D-05-0.160D-04-0.125D-03 0.103D-03
 Coeff:      0.472D-03 0.181D-02-0.161D-02-0.214D-02 0.455D-03 0.270D-02
 Coeff:     -0.150D-02-0.225D-02-0.217D-02 0.204D-01 0.277D-01-0.167D+00
 Coeff:     -0.672D-01 0.119D+01
 Gap=     0.056 Goal=   None    Shift=    0.000
 Gap=     0.029 Goal=   None    Shift=    0.000
 RMSDP=7.55D-07 MaxDP=5.61D-05 DE= 1.36D-12 OVMax= 5.03D-05

 Cycle  22  Pass 1  IDiag  1:
 E= -1136.07321445632     Delta-E=       -0.000000000010 Rises=F Damp=F
 DIIS: error= 1.17D-08 at cycle  22 NSaved=  20.
 NSaved=20 IEnMin=20 EnMin= -1136.07321445632     IErMin=20 ErrMin= 1.17D-08
 ErrMax= 1.17D-08  0.00D+00 EMaxC= 1.00D-01 BMatC= 5.10D-14 BMatP= 1.38D-12
 IDIUse=1 WtCom= 1.00D+00 WtEn= 0.00D+00
 Coeff-Com: -0.194D-05-0.988D-06 0.167D-05 0.650D-05-0.121D-03 0.385D-05
 Coeff-Com:  0.138D-02-0.388D-03-0.146D-02-0.349D-03 0.760D-03 0.126D-02
 Coeff-Com: -0.755D-03-0.461D-02 0.143D-02 0.316D-01-0.228D-02-0.205D+00
 Coeff-Com:  0.288D+00 0.891D+00
 Coeff:     -0.194D-05-0.988D-06 0.167D-05 0.650D-05-0.121D-03 0.385D-05
 Coeff:      0.138D-02-0.388D-03-0.146D-02-0.349D-03 0.760D-03 0.126D-02
 Coeff:     -0.755D-03-0.461D-02 0.143D-02 0.316D-01-0.228D-02-0.205D+00
 Coeff:      0.288D+00 0.891D+00
 Gap=     0.056 Goal=   None    Shift=    0.000
 Gap=     0.029 Goal=   None    Shift=    0.000
 RMSDP=1.63D-07 MaxDP=1.31D-05 DE=-1.05D-11 OVMax= 1.24D-05

 Cycle  23  Pass 1  IDiag  1:
 E= -1136.07321445633     Delta-E=       -0.000000000010 Rises=F Damp=F
 DIIS: error= 5.29D-09 at cycle  23 NSaved=  20.
 NSaved=20 IEnMin=20 EnMin= -1136.07321445633     IErMin=20 ErrMin= 5.29D-09
 ErrMax= 5.29D-09  0.00D+00 EMaxC= 1.00D-01 BMatC= 6.69D-15 BMatP= 5.10D-14
 IDIUse=1 WtCom= 1.00D+00 WtEn= 0.00D+00
 Coeff-Com: -0.376D-07 0.163D-05 0.133D-04-0.174D-04-0.256D-04 0.536D-04
 Coeff-Com:  0.662D-04-0.525D-04-0.109D-03-0.954D-04 0.470D-03 0.692D-06
 Coeff-Com: -0.777D-03-0.276D-02 0.555D-02 0.289D-01-0.614D-01-0.125D+00
 Coeff-Com:  0.281D+00 0.874D+00
 Coeff:     -0.376D-07 0.163D-05 0.133D-04-0.174D-04-0.256D-04 0.536D-04
 Coeff:      0.662D-04-0.525D-04-0.109D-03-0.954D-04 0.470D-03 0.692D-06
 Coeff:     -0.777D-03-0.276D-02 0.555D-02 0.289D-01-0.614D-01-0.125D+00
 Coeff:      0.281D+00 0.874D+00
 Gap=     0.056 Goal=   None    Shift=    0.000
 Gap=     0.029 Goal=   None    Shift=    0.000
 RMSDP=6.81D-08 MaxDP=5.43D-06 DE=-1.00D-11 OVMax= 5.02D-06

 Cycle  24  Pass 1  IDiag  1:
 E= -1136.07321445632     Delta-E=        0.000000000014 Rises=F Damp=F
 DIIS: error= 3.99D-09 at cycle  24 NSaved=  20.
 NSaved=20 IEnMin=19 EnMin= -1136.07321445633     IErMin=20 ErrMin= 3.99D-09
 ErrMax= 3.99D-09  0.00D+00 EMaxC= 1.00D-01 BMatC= 2.48D-15 BMatP= 6.69D-15
 IDIUse=1 WtCom= 1.00D+00 WtEn= 0.00D+00
 Large coefficients: NSaved= 20 BigCof=    0.00 CofMax=   10.00 Det=-1.66D-15
 Inversion failed.  Reducing to 19 matrices.
 Large coefficients: NSaved= 19 BigCof=    0.00 CofMax=   10.00 Det=-1.77D-15
 Inversion failed.  Reducing to 18 matrices.
 Large coefficients: NSaved= 18 BigCof=    0.00 CofMax=   10.00 Det=-1.77D-15
 Inversion failed.  Reducing to 17 matrices.
 Large coefficients: NSaved= 17 BigCof=    0.00 CofMax=   10.00 Det=-1.78D-15
 Inversion failed.  Reducing to 16 matrices.
 Large coefficients: NSaved= 16 BigCof=    0.00 CofMax=   10.00 Det=-1.84D-15
 Inversion failed.  Reducing to 15 matrices.
 Coeff-Com:  0.467D-04-0.369D-04-0.238D-04-0.513D-05-0.619D-04 0.335D-03
 Coeff-Com: -0.239D-03-0.523D-03-0.585D-03 0.364D-02 0.651D-02-0.308D-01
 Coeff-Com: -0.509D-01-0.609D-01 0.113D+01
 Coeff:      0.467D-04-0.369D-04-0.238D-04-0.513D-05-0.619D-04 0.335D-03
 Coeff:     -0.239D-03-0.523D-03-0.585D-03 0.364D-02 0.651D-02-0.308D-01
 Coeff:     -0.509D-01-0.609D-01 0.113D+01
 Gap=     0.056 Goal=   None    Shift=    0.000
 Gap=     0.029 Goal=   None    Shift=    0.000
 RMSDP=2.40D-08 MaxDP=1.97D-06 DE= 1.41D-11 OVMax= 1.52D-06

 Cycle  25  Pass 1  IDiag  1:
 E= -1136.07321445632     Delta-E=       -0.000000000006 Rises=F Damp=F
 DIIS: error= 6.23D-10 at cycle  25 NSaved=  16.
 NSaved=16 IEnMin=14 EnMin= -1136.07321445633     IErMin=16 ErrMin= 6.23D-10
 ErrMax= 6.23D-10  0.00D+00 EMaxC= 1.00D-01 BMatC= 1.42D-16 BMatP= 2.48D-15
 IDIUse=1 WtCom= 1.00D+00 WtEn= 0.00D+00
 Large coefficients: NSaved= 16 BigCof=    0.00 CofMax=   10.00 Det=-2.85D-16
 Inversion failed.  Reducing to 15 matrices.
 Coeff-Com:  0.638D-05 0.311D-05-0.163D-05-0.406D-04 0.926D-04-0.514D-04
 Coeff-Com:  0.415D-04-0.162D-03-0.133D-02 0.779D-02-0.490D-02-0.477D-01
 Coeff-Com: -0.805D-01 0.434D+00 0.692D+00
 Coeff:      0.638D-05 0.311D-05-0.163D-05-0.406D-04 0.926D-04-0.514D-04
 Coeff:      0.415D-04-0.162D-03-0.133D-02 0.779D-02-0.490D-02-0.477D-01
 Coeff:     -0.805D-01 0.434D+00 0.692D+00
 Gap=     0.056 Goal=   None    Shift=    0.000
 Gap=     0.029 Goal=   None    Shift=    0.000
 RMSDP=5.27D-09 MaxDP=3.95D-07 DE=-5.68D-12 OVMax= 3.75D-07

 SCF Done:  E(UB3LYP) =  -1136.07321446     A.U. after   25 cycles
            NFock= 25  Conv=0.53D-08     -V/T= 2.0023
 <Sx>= 0.0000 <Sy>= 0.0000 <Sz>= 0.5000 <S**2>= 0.7602 S= 0.5051
 <L.S>= 0.000000000000E+00
 KE= 1.133457844347D+03 PE=-3.537647347126D+03 EE= 8.639945313462D+02
 Annihilation of the first spin contaminant:
 S**2 before annihilation     0.7602,   after     0.7501
 Leave Link  502 at Mon Nov 13 19:38:50 2023, MaxMem=  1879048192 cpu:             244.6 elap:              20.9
 (Enter /home/sekinelabo/g16/l601.exe)
 Copying SCF densities to generalized density rwf, IOpCl= 1 IROHF=0.

 **********************************************************************

            Population analysis using the SCF Density.

 **********************************************************************

 Orbital symmetries:
 Alpha Orbitals:
       Occupied  (A) (A) (A) (A) (A) (A) (A) (A) (A) (A) (A) (A)
                 (A) (A) (A) (A) (A) (A) (A) (A) (A) (A) (A) (A)
                 (A) (A) (A) (A) (A) (A) (A) (A) (A) (A) (A) (A)
                 (A) (A) (A)
       Virtual   (A) (A) (A) (A) (A) (A) (A) (A) (A) (A) (A) (A)
                 (A) (A) (A) (A) (A) (A) (A) (A) (A) (A) (A) (A)
                 (A) (A) (A) (A) (A) (A) (A) (A) (A) (A) (A) (A)
                 (A) (A) (A) (A) (A) (A) (A) (A) (A) (A) (A) (A)
                 (A) (A) (A) (A) (A) (A) (A) (A) (A) (A) (A) (A)
                 (A) (A) (A) (A) (A) (A) (A) (A) (A) (A) (A) (A)
                 (A) (A) (A) (A) (A) (A) (A) (A) (A) (A) (A) (A)
                 (A) (A) (A) (A) (A) (A) (A) (A) (A) (A) (A) (A)
                 (A) (A) (A) (A) (A) (A) (A) (A) (A) (A) (A) (A)
                 (A) (A) (A) (A) (A) (A) (A) (A) (A) (A) (A) (A)
                 (A) (A) (A) (A) (A) (A) (A) (A) (A) (A) (A) (A)
                 (A) (A) (A) (A) (A) (A) (A) (A) (A) (A) (A) (A)
                 (A) (A) (A) (A) (A) (A) (A) (A) (A) (A) (A) (A)
                 (A) (A) (A) (A) (A) (A) (A) (A) (A) (A) (A) (A)
                 (A)
 Beta  Orbitals:
       Occupied  (A) (A) (A) (A) (A) (A) (A) (A) (A) (A) (A) (A)
                 (A) (A) (A) (A) (A) (A) (A) (A) (A) (A) (A) (A)
                 (A) (A) (A) (A) (A) (A) (A) (A) (A) (A) (A) (A)
                 (A) (A)
       Virtual   (A) (A) (A) (A) (A) (A) (A) (A) (A) (A) (A) (A)
                 (A) (A) (A) (A) (A) (A) (A) (A) (A) (A) (A) (A)
                 (A) (A) (A) (A) (A) (A) (A) (A) (A) (A) (A) (A)
                 (A) (A) (A) (A) (A) (A) (A) (A) (A) (A) (A) (A)
                 (A) (A) (A) (A) (A) (A) (A) (A) (A) (A) (A) (A)
                 (A) (A) (A) (A) (A) (A) (A) (A) (A) (A) (A) (A)
                 (A) (A) (A) (A) (A) (A) (A) (A) (A) (A) (A) (A)
                 (A) (A) (A) (A) (A) (A) (A) (A) (A) (A) (A) (A)
                 (A) (A) (A) (A) (A) (A) (A) (A) (A) (A) (A) (A)
                 (A) (A) (A) (A) (A) (A) (A) (A) (A) (A) (A) (A)
                 (A) (A) (A) (A) (A) (A) (A) (A) (A) (A) (A) (A)
                 (A) (A) (A) (A) (A) (A) (A) (A) (A) (A) (A) (A)
                 (A) (A) (A) (A) (A) (A) (A) (A) (A) (A) (A) (A)
                 (A) (A) (A) (A) (A) (A) (A) (A) (A) (A) (A) (A)
                 (A) (A)
 The electronic state is 2-A.
 Alpha  occ. eigenvalues --  -38.45052 -38.44364 -38.44338 -38.43594 -38.43540
 Alpha  occ. eigenvalues --  -38.43445 -38.43373  -2.21180  -2.20298  -2.20271
 Alpha  occ. eigenvalues --   -2.19844  -2.19801  -2.19779  -2.19501  -1.15059
 Alpha  occ. eigenvalues --   -1.14804  -1.14795  -1.14095  -1.14031  -1.13998
 Alpha  occ. eigenvalues --   -1.13974  -1.13882  -1.13860  -1.13838  -1.13594
 Alpha  occ. eigenvalues --   -1.13549  -1.13544  -1.13484  -1.13469  -1.13348
 Alpha  occ. eigenvalues --   -1.13319  -1.13288  -1.13043  -1.13002  -1.12987
 Alpha  occ. eigenvalues --   -0.21232  -0.14162  -0.12825  -0.11467
 Alpha virt. eigenvalues --   -0.05856  -0.04530  -0.03658  -0.03633  -0.02760
 Alpha virt. eigenvalues --   -0.02425  -0.01784  -0.00636  -0.00219   0.00287
 Alpha virt. eigenvalues --    0.00544   0.00655   0.00969   0.01019   0.01085
 Alpha virt. eigenvalues --    0.01114   0.01215   0.01444   0.01512   0.01578
 Alpha virt. eigenvalues --    0.01694   0.01746   0.01838   0.01913   0.02021
 Alpha virt. eigenvalues --    0.02501   0.02685   0.02863   0.02890   0.02943
 Alpha virt. eigenvalues --    0.02988   0.02993   0.03072   0.03249   0.03283
 Alpha virt. eigenvalues --    0.03392   0.04033   0.04212   0.04266   0.04276
 Alpha virt. eigenvalues --    0.04581   0.04855   0.05111   0.05239   0.05547
 Alpha virt. eigenvalues --    0.05610   0.05977   0.06145   0.06359   0.06680
 Alpha virt. eigenvalues --    0.06828   0.07085   0.07230   0.07670   0.08295
 Alpha virt. eigenvalues --    0.08727   0.09492   0.09614   0.10212   0.10424
 Alpha virt. eigenvalues --    0.10550   0.11431   0.12488   0.12570   0.13100
 Alpha virt. eigenvalues --    0.13648   0.13840   0.13969   0.14666   0.14793
 Alpha virt. eigenvalues --    0.14941   0.15507   0.15965   0.16119   0.17324
 Alpha virt. eigenvalues --    0.17559   0.19610   0.20362   0.23432   0.25332
 Alpha virt. eigenvalues --    0.25831   0.26345   0.29975   0.31091   0.32571
 Alpha virt. eigenvalues --    0.32848   0.33218   0.33584   0.33872   0.36200
 Alpha virt. eigenvalues --    0.37690   0.38275   0.40289   0.41403   0.41437
 Alpha virt. eigenvalues --    0.41722   0.42337   0.43360   0.43611   0.43652
 Alpha virt. eigenvalues --    0.44184   0.45298   0.47199   0.47296   0.47966
 Alpha virt. eigenvalues --    0.48180   0.49280   0.49465   0.49616   0.49817
 Alpha virt. eigenvalues --    0.50051   0.50871   0.51213   0.52943   0.53087
 Alpha virt. eigenvalues --    0.54537   0.55359   0.56808   0.58236   0.58500
 Alpha virt. eigenvalues --    0.59550   0.62413   0.63594   0.64807   0.71366
 Alpha virt. eigenvalues --    0.72426   0.75292   0.76730   0.80431   0.80902
 Alpha virt. eigenvalues --    0.84329   0.85378   0.86561   0.87628   2.11506
 Alpha virt. eigenvalues --    2.18638   2.23976   2.26691   2.29211   2.34760
 Alpha virt. eigenvalues --    2.39748   4.41474   4.42787   4.43011   4.43683
 Alpha virt. eigenvalues --    4.44640   4.45282   4.46072   4.46243   4.47310
 Alpha virt. eigenvalues --    4.50158   4.51068   4.59786   4.69448   4.72922
 Alpha virt. eigenvalues --    4.73998   4.75716   4.77917   4.80247   4.82202
 Alpha virt. eigenvalues --    4.84679   4.90442  96.33126  96.42691  96.51528
 Alpha virt. eigenvalues --   96.53810  96.58531  96.65684  96.72485
  Beta  occ. eigenvalues --  -38.44951 -38.44348 -38.44323 -38.43561 -38.43509
  Beta  occ. eigenvalues --  -38.43401 -38.43337  -2.21002  -2.20271  -2.20247
  Beta  occ. eigenvalues --   -2.19791  -2.19743  -2.19718  -2.19438  -1.14939
  Beta  occ. eigenvalues --   -1.14676  -1.14652  -1.14070  -1.14015  -1.13978
  Beta  occ. eigenvalues --   -1.13949  -1.13856  -1.13833  -1.13809  -1.13546
  Beta  occ. eigenvalues --   -1.13491  -1.13462  -1.13415  -1.13386  -1.13309
  Beta  occ. eigenvalues --   -1.13274  -1.13245  -1.12996  -1.12949  -1.12938
  Beta  occ. eigenvalues --   -0.20317  -0.13862  -0.11306
  Beta virt. eigenvalues --   -0.08390  -0.05766  -0.04135  -0.03178  -0.03075
  Beta virt. eigenvalues --   -0.02131  -0.01696  -0.01676  -0.00470  -0.00103
  Beta virt. eigenvalues --    0.00314   0.00599   0.00704   0.01023   0.01097
  Beta virt. eigenvalues --    0.01147   0.01168   0.01297   0.01516   0.01647
  Beta virt. eigenvalues --    0.01660   0.01714   0.01860   0.01929   0.01948
  Beta virt. eigenvalues --    0.02094   0.02532   0.02683   0.02905   0.02931
  Beta virt. eigenvalues --    0.02947   0.02978   0.03050   0.03132   0.03319
  Beta virt. eigenvalues --    0.03420   0.03444   0.04211   0.04400   0.04408
  Beta virt. eigenvalues --    0.04430   0.04626   0.04886   0.05257   0.05447
  Beta virt. eigenvalues --    0.05694   0.05795   0.06046   0.06320   0.06358
  Beta virt. eigenvalues --    0.06707   0.06977   0.07211   0.07276   0.07729
  Beta virt. eigenvalues --    0.08358   0.08929   0.09689   0.09779   0.10500
  Beta virt. eigenvalues --    0.10788   0.10814   0.11603   0.12661   0.13059
  Beta virt. eigenvalues --    0.13233   0.13871   0.14051   0.14151   0.14846
  Beta virt. eigenvalues --    0.14906   0.15108   0.15628   0.16159   0.16460
  Beta virt. eigenvalues --    0.17488   0.17835   0.19983   0.20501   0.23850
  Beta virt. eigenvalues --    0.25971   0.26011   0.26689   0.30336   0.31403
  Beta virt. eigenvalues --    0.33126   0.33432   0.33709   0.33888   0.33922
  Beta virt. eigenvalues --    0.36581   0.37874   0.38492   0.40478   0.41531
  Beta virt. eigenvalues --    0.41688   0.41999   0.42600   0.43576   0.43780
  Beta virt. eigenvalues --    0.43881   0.44432   0.45444   0.47325   0.47457
  Beta virt. eigenvalues --    0.48114   0.48399   0.49380   0.49733   0.49900
  Beta virt. eigenvalues --    0.50031   0.50433   0.51149   0.51452   0.53012
  Beta virt. eigenvalues --    0.53315   0.54754   0.55521   0.57024   0.58523
  Beta virt. eigenvalues --    0.58733   0.59949   0.62556   0.63791   0.65015
  Beta virt. eigenvalues --    0.71456   0.72550   0.75444   0.76864   0.80560
  Beta virt. eigenvalues --    0.81132   0.84607   0.85577   0.86734   0.87737
  Beta virt. eigenvalues --    2.11594   2.18691   2.24279   2.26887   2.29305
  Beta virt. eigenvalues --    2.34826   2.39890   4.41534   4.42843   4.43155
  Beta virt. eigenvalues --    4.43800   4.44732   4.45311   4.46104   4.46296
  Beta virt. eigenvalues --    4.47343   4.50275   4.51158   4.59826   4.69510
  Beta virt. eigenvalues --    4.72979   4.74035   4.75842   4.78017   4.80283
  Beta virt. eigenvalues --    4.82264   4.84759   4.90526  96.33158  96.42711
  Beta virt. eigenvalues --   96.51637  96.53868  96.58572  96.65718  96.72538
          Condensed to atoms (all electrons):
               1          2          3          4          5          6
     1  Na  12.841935  -0.052707   0.133780  -0.628086   0.120177  -0.686169
     2  Na  -0.052707  11.774737  -0.112465   0.060019  -0.759678  -0.129201
     3  Na   0.133780  -0.112465  11.444062   0.727414  -0.549002  -1.117361
     4  Na  -0.628086   0.060019   0.727414  14.757285  -0.055041  -2.871114
     5  Na   0.120177  -0.759678  -0.549002  -0.055041  12.226498   0.202580
     6  Na  -0.686169  -0.129201  -1.117361  -2.871114   0.202580  14.844924
     7  Na   0.131444  -0.171013   0.457788  -1.065015  -0.480906   0.684821
               7
     1  Na   0.131444
     2  Na  -0.171013
     3  Na   0.457788
     4  Na  -1.065015
     5  Na  -0.480906
     6  Na   0.684821
     7  Na  11.430026
          Atomic-Atomic Spin Densities.
               1          2          3          4          5          6
     1  Na   0.350037  -0.058360  -0.024994  -0.100519   0.249003  -0.146297
     2  Na  -0.058360   0.233561   0.115791   0.090301  -0.180682   0.136107
     3  Na  -0.024994   0.115791  -0.017049  -0.119592  -0.026060   0.093450
     4  Na  -0.100519   0.090301  -0.119592  -0.317471  -0.049121   0.359158
     5  Na   0.249003  -0.180682  -0.026060  -0.049121   0.351139  -0.065966
     6  Na  -0.146297   0.136107   0.093450   0.359158  -0.065966  -0.263558
     7  Na  -0.026231   0.128926   0.024933   0.127256  -0.034816  -0.146981
               7
     1  Na  -0.026231
     2  Na   0.128926
     3  Na   0.024933
     4  Na   0.127256
     5  Na  -0.034816
     6  Na  -0.146981
     7  Na  -0.027276
 Mulliken charges and spin densities:
               1          2
     1  Na  -0.860374   0.242639
     2  Na   0.390307   0.465645
     3  Na   0.015783   0.046480
     4  Na   0.074538  -0.009988
     5  Na   0.295372   0.243498
     6  Na   0.071519  -0.034086
     7  Na   0.012855   0.045812
 Sum of Mulliken charges =  -0.00000   1.00000
 Mulliken charges and spin densities with hydrogens summed into heavy atoms:
               1          2
     1  Na  -0.860374   0.242639
     2  Na   0.390307   0.465645
     3  Na   0.015783   0.046480
     4  Na   0.074538  -0.009988
     5  Na   0.295372   0.243498
     6  Na   0.071519  -0.034086
     7  Na   0.012855   0.045812
 Electronic spatial extent (au):  <R**2>=           1703.7787
 Charge=             -0.0000 electrons
 Dipole moment (field-independent basis, Debye):
    X=             -0.0110    Y=             -0.2640    Z=             -0.1622  Tot=              0.3100
 Quadrupole moment (field-independent basis, Debye-Ang):
   XX=            -53.3758   YY=            -74.8704   ZZ=            -66.1542
   XY=              0.0317   XZ=              0.0428   YZ=              4.9963
 Traceless Quadrupole moment (field-independent basis, Debye-Ang):
   XX=             11.4243   YY=            -10.0703   ZZ=             -1.3541
   XY=              0.0317   XZ=              0.0428   YZ=              4.9963
 Octapole moment (field-independent basis, Debye-Ang**2):
  XXX=             -0.2284  YYY=             -2.1467  ZZZ=              5.2370  XYY=             -0.0025
  XXY=            -14.2303  XXZ=            -10.4636  XZZ=             -0.0647  YZZ=              3.3502
  YYZ=             -2.5379  XYZ=             -0.0385
 Hexadecapole moment (field-independent basis, Debye-Ang**3):
 XXXX=          -1206.4661 YYYY=           -923.4422 ZZZZ=           -708.2809 XXXY=             -0.3611
 XXXZ=              3.0485 YYYX=             -0.4754 YYYZ=             41.8803 ZZZX=             -1.9803
 ZZZY=              3.4571 XXYY=           -338.7287 XXZZ=           -390.2667 YYZZ=           -278.0107
 XXYZ=             47.5332 YYXZ=              0.5069 ZZXY=              1.4732
 N-N= 4.041217569762D+02 E-N=-3.537647347221D+03  KE= 1.133457844347D+03
                          Isotropic Fermi Contact Couplings
        Atom                 a.u.       MegaHertz       Gauss      10(-4) cm-1
     1  Na(23)             0.10004     118.34976      42.23014      39.47723
     2  Na(23)             0.38420     454.52077     162.18431     151.61181
     3  Na(23)             0.04568      54.03929      19.28256      18.02557
     4  Na(23)             0.03676      43.48875      15.51787      14.50628
     5  Na(23)             0.11720     138.65568      49.47580      46.25056
     6  Na(23)             0.04604      54.46574      19.43473      18.16782
     7  Na(23)             0.04041      47.81132      17.06027      15.94814
 --------------------------------------------------------
       Center         ----  Spin Dipole Couplings  ----
                      3XX-RR        3YY-RR        3ZZ-RR
 --------------------------------------------------------
     1   Atom       -0.023607     -0.034486      0.058093
     2   Atom       -0.017229      0.042755     -0.025525
     3   Atom        0.000436     -0.010316      0.009880
     4   Atom       -0.013716     -0.040834      0.054550
     5   Atom       -0.008287      0.024891     -0.016604
     6   Atom       -0.010786     -0.040472      0.051258
     7   Atom        0.000143     -0.010573      0.010430
 --------------------------------------------------------
                        XY            XZ            YZ
 --------------------------------------------------------
     1   Atom        0.000161      0.000390     -0.000983
     2   Atom        0.001984     -0.000344     -0.009357
     3   Atom       -0.000979     -0.014461     -0.001508
     4   Atom        0.003220      0.050578      0.012131
     5   Atom        0.000473      0.000239      0.012575
     6   Atom       -0.002939     -0.051739      0.009959
     7   Atom        0.000949      0.014172     -0.001302
 --------------------------------------------------------


 ---------------------------------------------------------------------------------
              Anisotropic Spin Dipole Couplings in Principal Axis System
 ---------------------------------------------------------------------------------

       Atom             a.u.   MegaHertz   Gauss  10(-4) cm-1        Axes

              Baa    -0.0345    -4.872    -1.738    -1.625 -0.0152  0.9998  0.0107
     1 Na(23) Bbb    -0.0236    -3.334    -1.189    -1.112  0.9999  0.0152 -0.0046
              Bcc     0.0581     8.205     2.928     2.737  0.0048 -0.0106  0.9999
 
              Baa    -0.0268    -3.782    -1.350    -1.262  0.0080  0.1331  0.9911
     2 Na(23) Bbb    -0.0173    -2.442    -0.871    -0.815  0.9994 -0.0336 -0.0036
              Bcc     0.0441     6.225     2.221     2.076  0.0328  0.9905 -0.1333
 
              Baa    -0.0119    -1.677    -0.598    -0.559  0.5398  0.7353  0.4098
     3 Na(23) Bbb    -0.0085    -1.202    -0.429    -0.401 -0.6042  0.6774 -0.4196
              Bcc     0.0204     2.878     1.027     0.960 -0.5861 -0.0211  0.8100
 
              Baa    -0.0442    -6.249    -2.230    -2.084  0.5062  0.7857 -0.3556
     4 Na(23) Bbb    -0.0384    -5.422    -1.935    -1.809  0.7263 -0.6108 -0.3155
              Bcc     0.0826    11.671     4.164     3.893  0.4651  0.0986  0.8798
 
              Baa    -0.0201    -2.841    -1.014    -0.948 -0.0087 -0.2690  0.9631
     5 Na(23) Bbb    -0.0083    -1.171    -0.418    -0.391  0.9999 -0.0160  0.0046
              Bcc     0.0284     4.012     1.432     1.338  0.0142  0.9630  0.2691
 
              Baa    -0.0431    -6.089    -2.173    -2.031 -0.5003  0.7886 -0.3575
     6 Na(23) Bbb    -0.0383    -5.406    -1.929    -1.803  0.7140  0.6093  0.3448
              Bcc     0.0814    11.495     4.102     3.834 -0.4897  0.0827  0.8679
 
              Baa    -0.0118    -1.661    -0.593    -0.554 -0.4936  0.7909  0.3616
     7 Na(23) Bbb    -0.0086    -1.216    -0.434    -0.406  0.6541  0.6117 -0.4450
              Bcc     0.0204     2.877     1.026     0.960  0.5732 -0.0169  0.8193
 

 ---------------------------------------------------------------------------------

 No NMR shielding tensors so no spin-rotation constants.
 Leave Link  601 at Mon Nov 13 19:38:50 2023, MaxMem=  1879048192 cpu:               2.7 elap:               0.2
 (Enter /home/sekinelabo/g16/l701.exe)
 ... and contract with generalized density number  0.
 Compute integral first derivatives.
 Leave Link  701 at Mon Nov 13 19:38:50 2023, MaxMem=  1879048192 cpu:               1.7 elap:               0.1
 (Enter /home/sekinelabo/g16/l702.exe)
 L702 exits ... SP integral derivatives will be done elsewhere.
 Leave Link  702 at Mon Nov 13 19:38:50 2023, MaxMem=  1879048192 cpu:               0.4 elap:               0.0
 (Enter /home/sekinelabo/g16/l703.exe)
 Integral derivatives from FoFJK, PRISM(SPDF).
 Compute integral first derivatives, UseDBF=F ICtDFT=           0.
 Calling FoFJK, ICntrl=      2127 FMM=F ISym2X=0 I1Cent= 0 IOpClX= 1 NMat=1 NMatS=1 NMatT=0.
 FoFJK:  IHMeth= 1 ICntrl=    2127 DoSepK=F KAlg= 0 I1Cent=           0 FoldK=F
 IRaf=         0 NMat=       1 IRICut=       1 DoRegI=T DoRafI=F ISym2E= 0 IDoP0=0 IntGTp=1.
 FoFCou: FMM=F IPFlag=           0 FMFlag=      100000 FMFlg1=         800
         NFxFlg=           0 DoJE=F BraDBF=F KetDBF=F FulRan=T
         wScrn=  0.000000 ICntrl=      2127 IOpCl=  1 I1Cent=           0 NGrid=           0
         NMat0=    1 NMatS0=      1 NMatT0=    0 NMatD0=    1 NMtDS0=    0 NMtDT0=    0
 Symmetry not used in FoFCou.
 Leave Link  703 at Mon Nov 13 19:38:53 2023, MaxMem=  1879048192 cpu:              37.6 elap:               2.4
 (Enter /home/sekinelabo/g16/l716.exe)
 Dipole        =-4.32269604D-03-1.03849469D-01-6.38144677D-02
 ***** Axes restored to original set *****
 -------------------------------------------------------------------
 Center     Atomic                   Forces (Hartrees/Bohr)
 Number     Number              X              Y              Z
 -------------------------------------------------------------------
      1       11          -0.000004224    0.023507499    0.005970685
      2       11          -0.000599139    0.013214325   -0.023812776
      3       11          -0.009307422    0.007490364    0.000126987
      4       11          -0.016420011   -0.020096071   -0.004054749
      5       11           0.000632632   -0.012024245    0.026493847
      6       11           0.016366130   -0.019631185   -0.004937245
      7       11           0.009332034    0.007539313    0.000213251
 -------------------------------------------------------------------
 Cartesian Forces:  Max     0.026493847 RMS     0.013507365
 Z-matrix is all fixed cartesians, so copy forces.
 Force constants in Cartesian coordinates: 
                1             2             3             4             5 
      1  0.279006D+00
      2 -0.733068D-02  0.251330D+01
      3  0.357028D-02 -0.962888D+00  0.739926D+00
      4 -0.478133D-01  0.234651D-03 -0.286593D-03  0.146553D+00
      5 -0.660524D-03 -0.206757D-01 -0.554875D-01 -0.434091D-03  0.143702D+00
      6 -0.288160D-03  0.205802D-02 -0.680329D-01  0.135133D-02 -0.248292D-01
      7 -0.600145D-01  0.216543D-01  0.600324D-02 -0.103481D-01  0.629490D-02
      8 -0.354097D-01 -0.115499D+01  0.498142D+00 -0.179459D-02 -0.165875D-01
      9 -0.162440D-01  0.522528D+00 -0.301420D+00  0.257975D-01 -0.771474D-02
     10 -0.307937D-01  0.220452D-02  0.106356D-02 -0.485386D-01 -0.794941D-02
     11 -0.259305D-01 -0.490297D-01 -0.127799D-01 -0.120346D-01 -0.542642D-01
     12 -0.912397D-02 -0.254939D-01 -0.173640D-01  0.327602D-01  0.400146D-01
     13 -0.492771D-01  0.324750D-04 -0.491413D-03  0.197389D-01  0.275821D-03
     14  0.301849D-03 -0.851461D-01  0.502332D-01  0.152103D-03  0.179538D-01
     15  0.111482D-03 -0.340928D-01 -0.337421D-01 -0.748222D-03  0.166020D-01
     16 -0.307621D-01 -0.239314D-02 -0.822401D-03 -0.499022D-01  0.932321D-02
     17  0.259132D-01 -0.480529D-01 -0.146601D-01  0.120029D-01 -0.545871D-01
     18  0.933231D-02 -0.254505D-01 -0.179159D-01 -0.333107D-01  0.386020D-01
     19 -0.603455D-01 -0.144021D-01 -0.903667D-02 -0.968965D-02 -0.684990D-02
     20  0.431162D-01 -0.115541D+01  0.497441D+00  0.187357D-02 -0.155417D-01
     21  0.126421D-01  0.523339D+00 -0.301451D+00 -0.255634D-01 -0.718732D-02
                6             7             8             9            10 
      6  0.232847D+00
      7 -0.113700D-01  0.120419D+00
      8  0.125896D-01 -0.157113D-01  0.659390D+00
      9 -0.215120D-01 -0.457518D-02 -0.256384D+00  0.212791D+00
     10 -0.117737D-01 -0.331933D-01  0.308165D-01  0.101733D-01  0.216014D+00
     11 -0.619737D-02 -0.259634D-01 -0.635814D-01 -0.901443D-02  0.357161D-01
     12 -0.535423D-01 -0.801748D-02 -0.460267D-02 -0.351765D-01  0.107131D-01
     13 -0.714046D-03 -0.853872D-02  0.139304D-01 -0.206452D-01 -0.500029D-01
     14  0.106395D-01 -0.231413D-02 -0.407541D-02  0.164740D-01 -0.144702D-01
     15 -0.166205D-01  0.115389D-01  0.103240D-01 -0.126670D-01  0.428274D-02
     16  0.121430D-01 -0.264994D-02  0.144145D-01  0.524134D-02 -0.508712D-01
     17 -0.696039D-02  0.137950D-01  0.111663D-01 -0.563754D-03 -0.316919D-01
     18 -0.528515D-01  0.448197D-02  0.531786D-02  0.138467D-01 -0.984728D-02
     19  0.106516D-01 -0.567403D-02 -0.624586D-02  0.252260D-03 -0.261430D-02
     20  0.126997D-01  0.224465D-02  0.568674D+00 -0.265326D+00 -0.146257D-01
     21 -0.202878D-01  0.193859D-02 -0.265387D+00  0.144137D+00 -0.461166D-02
               11            12            13            14            15 
     11  0.228757D+00
     12  0.164500D-01  0.178601D+00
     13  0.110524D-01 -0.336730D-01  0.145311D+00
     14 -0.390830D-01 -0.271591D-01 -0.210757D-03  0.153456D+00
     15  0.181628D-01 -0.687223D-01  0.150881D-02 -0.398835D-01  0.214754D+00
     16  0.309951D-01  0.116760D-01 -0.483995D-01  0.136055D-01 -0.458584D-02
     17 -0.338341D-01 -0.477537D-02 -0.106210D-01 -0.380776D-01  0.185517D-01
     18 -0.648659D-02 -0.179933D-01  0.332115D-01 -0.271842D-01 -0.696370D-01
     19 -0.138352D-01 -0.433481D-02 -0.883166D-02  0.293559D-02 -0.121078D-01
     20  0.110351D-01  0.556641D-02 -0.144592D-01 -0.502791D-02  0.103357D-01
     21 -0.134483D-03  0.141970D-01  0.208034D-01  0.168800D-01 -0.133652D-01
               16            17            18            19            20 
     16  0.216160D+00
     17 -0.351666D-01  0.226669D+00
     18 -0.128256D-01  0.192551D-01  0.179806D+00
     19 -0.335750D-01  0.257685D-01  0.895783D-02  0.120730D+00
     20 -0.307785D-01 -0.632834D-01 -0.405365D-02  0.126290D-01  0.659550D+00
     21 -0.108265D-01 -0.108472D-01 -0.352550D-01  0.561760D-02 -0.256663D+00
               21 
     21  0.212025D+00
 Leave Link  716 at Mon Nov 13 19:38:53 2023, MaxMem=  1879048192 cpu:               0.4 elap:               0.0
 (Enter /home/sekinelabo/g16/l103.exe)

 GradGradGradGradGradGradGradGradGradGradGradGradGradGradGradGradGradGrad
 Berny optimization.
 Search for a local minimum.
 Step number   1 out of a maximum of    2
 All quantities printed in internal units (Hartrees-Bohrs-Radians)
 Second derivative matrix not updated -- first step.
 ITU=  0
     Eigenvalues ---    0.11085   0.13887   0.14959   0.15536   0.20945
     Eigenvalues ---    0.23590   0.24435   0.24968   0.26781   0.30415
     Eigenvalues ---    0.32055   0.33411   0.35100   0.39039   4.30801
 Quadratic step=3.536D-01 exceeds max=3.000D-01 adjusted using Lamda=-2.529D-02.
 Angle between NR and scaled steps=   2.90 degrees.
 Angle between quadratic step and forces=  21.80 degrees.
 Linear search not attempted -- first point.
 B after Tr=     0.000000    0.000000   -0.000000
         Rot=    1.000000   -0.000000   -0.000000    0.000000 Ang=   0.00 deg.
 Variable       Old X    -DE/DX   Delta X   Delta X   Delta X     New X
                                 (Linear)    (Quad)   (Total)
    X1        5.51689  -0.00000   0.00000  -0.00001  -0.00001   5.51688
    Y1        4.76698   0.02351   0.00000   0.06575   0.06575   4.83273
    Z1        4.84426   0.00597   0.00000   0.02080   0.02080   4.86506
    X2        5.42809  -0.00060   0.00000  -0.00303  -0.00303   5.42507
    Y2        2.81198   0.01321   0.00000   0.04306   0.04306   2.85505
    Z2        0.00000  -0.02381   0.00000  -0.10576  -0.10576  -0.10576
    X3        0.00000  -0.00931   0.00000  -0.10846  -0.10846  -0.10846
    Y3        4.68600   0.00749   0.00000   0.05700   0.05700   4.74300
    Z3        4.71398   0.00013   0.00000   0.00382   0.00382   4.71780
    X4        2.52127  -0.01642   0.00000  -0.07820  -0.07820   2.44307
    Y4        0.00000  -0.02010   0.00000  -0.07892  -0.07892  -0.07892
    Z4        3.24488  -0.00405   0.00000  -0.01566  -0.01566   3.22922
    X5        5.59896   0.00063   0.00000   0.00302   0.00302   5.60197
    Y5        0.22613  -0.01202   0.00000  -0.06707  -0.06707   0.15905
    Z5        7.40895   0.02649   0.00000   0.11215   0.11215   7.52109
    X6        8.51425   0.01637   0.00000   0.07811   0.07811   8.59236
    Y6        0.04465  -0.01963   0.00000  -0.07733  -0.07733  -0.03268
    Z6        3.11834  -0.00494   0.00000  -0.01903  -0.01903   3.09930
    X7       11.03017   0.00933   0.00000   0.10857   0.10857  11.13874
    Y7        4.70287   0.00754   0.00000   0.05752   0.05752   4.76039
    Z7        4.66832   0.00021   0.00000   0.00368   0.00368   4.67200
         Item               Value     Threshold  Converged?
 Maximum Force            0.026494     0.000450     NO 
 RMS     Force            0.013507     0.000300     NO 
 Maximum Displacement     0.112147     0.001800     NO 
 RMS     Displacement     0.065487     0.001200     NO 
 Predicted change in Energy=-9.762520D-03
 GradGradGradGradGradGradGradGradGradGradGradGradGradGradGradGradGradGrad

 Leave Link  103 at Mon Nov 13 19:38:53 2023, MaxMem=  1879048192 cpu:               0.3 elap:               0.0
 (Enter /home/sekinelabo/g16/l9999.exe)
 1\1\GINC-SEKINELABO-XA7R-R37\Force\UB3LYP\6-311+G(d)\Na7(2)\SEKINELABO
 \13-Nov-2023\0\\#P B3LYP/6-311+g(d) force\\Gaussian input prepared by 
 ASE\\0,2\Na,2.9194121988,2.5225752112,2.5634696791\Na,2.8724236348,1.4
 880364618,0.\Na,0.,2.4797235398,2.4945315123\Na,1.3341968961,0.,1.7171
 146524\Na,2.9628399366,0.1196605775,3.9206452672\Na,4.5055491004,0.023
 6297657,1.6501524114\Na,5.8369122033,2.4886539405,2.4703671502\\Versio
 n=ES64L-G16RevB.01\State=2-A\HF=-1136.0732145\S2=0.7602\S2-1=0.\S2A=0.
 750062\RMSD=5.268e-09\RMSF=1.351e-02\Dipole=-0.0043227,0.1038495,0.063
 8145\Quadrupole=8.49372,-7.4870066,-1.0067135,-0.0235903,-0.0318557,3.
 7146089\PG=C01 [X(Na7)]\\@


 Everything starts as somebody's daydream.
                           -- Larry Niven
 Job cpu time:       0 days  0 hours  4 minutes 59.8 seconds.
 Elapsed time:       0 days  0 hours  0 minutes 24.4 seconds.
 File lengths (MBytes):  RWF=     32 Int=      0 D2E=      0 Chk=      6 Scr=      1
 Normal termination of Gaussian 16 at Mon Nov 13 19:38:53 2023.
