 Entering Gaussian System, Link 0=g16
 Initial command:
 /home/sekinelabo/g16/l1.exe "/home/sekinelabo/g16temp/Gau-4113482.inp" -scrdir="/home/sekinelabo/g16temp/"
 Entering Link 1 = /home/sekinelabo/g16/l1.exe PID=   4113484.
  
 Copyright (c) 1988-2017, Gaussian, Inc.  All Rights Reserved.
  
 This is part of the Gaussian(R) 16 program.  It is based on
 the Gaussian(R) 09 system (copyright 2009, Gaussian, Inc.),
 the Gaussian(R) 03 system (copyright 2003, Gaussian, Inc.),
 the Gaussian(R) 98 system (copyright 1998, Gaussian, Inc.),
 the Gaussian(R) 94 system (copyright 1995, Gaussian, Inc.),
 the Gaussian 92(TM) system (copyright 1992, Gaussian, Inc.),
 the Gaussian 90(TM) system (copyright 1990, Gaussian, Inc.),
 the Gaussian 88(TM) system (copyright 1988, Gaussian, Inc.),
 the Gaussian 86(TM) system (copyright 1986, Carnegie Mellon
 University), and the Gaussian 82(TM) system (copyright 1983,
 Carnegie Mellon University). Gaussian is a federally registered
 trademark of Gaussian, Inc.
  
 This software contains proprietary and confidential information,
 including trade secrets, belonging to Gaussian, Inc.
  
 This software is provided under written license and may be
 used, copied, transmitted, or stored only in accord with that
 written license.
  
 The following legend is applicable only to US Government
 contracts under FAR:
  
                    RESTRICTED RIGHTS LEGEND
  
 Use, reproduction and disclosure by the US Government is
 subject to restrictions as set forth in subparagraphs (a)
 and (c) of the Commercial Computer Software - Restricted
 Rights clause in FAR 52.227-19.
  
 Gaussian, Inc.
 340 Quinnipiac St., Bldg. 40, Wallingford CT 06492
  
  
 ---------------------------------------------------------------
 Warning -- This program may not be used in any manner that
 competes with the business of Gaussian, Inc. or will provide
 assistance to any competitor of Gaussian, Inc.  The licensee
 of this program is prohibited from giving any competitor of
 Gaussian, Inc. access to this program.  By using this program,
 the user acknowledges that Gaussian, Inc. is engaged in the
 business of creating and licensing software in the field of
 computational chemistry and represents and warrants to the
 licensee that it is not a competitor of Gaussian, Inc. and that
 it will not use this program in any manner prohibited above.
 ---------------------------------------------------------------
  

 Cite this work as:
 Gaussian 16, Revision B.01,
 M. J. Frisch, G. W. Trucks, H. B. Schlegel, G. E. Scuseria, 
 M. A. Robb, J. R. Cheeseman, G. Scalmani, V. Barone, 
 G. A. Petersson, H. Nakatsuji, X. Li, M. Caricato, A. V. Marenich, 
 J. Bloino, B. G. Janesko, R. Gomperts, B. Mennucci, H. P. Hratchian, 
 J. V. Ortiz, A. F. Izmaylov, J. L. Sonnenberg, D. Williams-Young, 
 F. Ding, F. Lipparini, F. Egidi, J. Goings, B. Peng, A. Petrone, 
 T. Henderson, D. Ranasinghe, V. G. Zakrzewski, J. Gao, N. Rega, 
 G. Zheng, W. Liang, M. Hada, M. Ehara, K. Toyota, R. Fukuda, 
 J. Hasegawa, M. Ishida, T. Nakajima, Y. Honda, O. Kitao, H. Nakai, 
 T. Vreven, K. Throssell, J. A. Montgomery, Jr., J. E. Peralta, 
 F. Ogliaro, M. J. Bearpark, J. J. Heyd, E. N. Brothers, K. N. Kudin, 
 V. N. Staroverov, T. A. Keith, R. Kobayashi, J. Normand, 
 K. Raghavachari, A. P. Rendell, J. C. Burant, S. S. Iyengar, 
 J. Tomasi, M. Cossi, J. M. Millam, M. Klene, C. Adamo, R. Cammi, 
 J. W. Ochterski, R. L. Martin, K. Morokuma, O. Farkas, 
 J. B. Foresman, and D. J. Fox, Gaussian, Inc., Wallingford CT, 2016.
 
 ******************************************
 Gaussian 16:  ES64L-G16RevB.01 20-Dec-2017
                13-Nov-2023 
 ******************************************
 %mem=14GB
 %chk=checkpoint.chk
 %nprocshared=16
 Will use up to   16 processors via shared memory.
 -------------------------
 #P B3LYP/6-311+g(d) force
 -------------------------
 1/10=7,30=1,38=1/1,3;
 2/12=2,17=6,18=5,40=1/2;
 3/5=4,6=6,7=11,11=2,25=1,30=1,71=1,74=-5/1,2,3;
 4//1;
 5/5=2,38=5/2;
 6/7=2,8=2,9=2,10=2,28=1/1;
 7/29=1/1,2,3,16;
 1/10=7,30=1/3;
 99//99;
 Leave Link    1 at Mon Nov 13 18:30:58 2023, MaxMem=  1879048192 cpu:               0.7 elap:               0.1
 (Enter /home/sekinelabo/g16/l101.exe)
 ------------------------------
 Gaussian input prepared by ASE
 ------------------------------
 Symbolic Z-matrix:
 Charge =  0 Multiplicity = 2
 Na                    4.21764   0.        3.19093 
 Na                    0.        0.33481   4.40179 
 Na                    6.16254   2.12034   2.36658 
 Na                    4.05715   3.95445   3.44118 
 Na                    0.00716   4.18828   2.40614 
 Na                    1.94626   1.92556   2.76492 
 Na                    1.47613   0.85773   0. 
 
 ITRead=  0  0  0  0  0  0  0
 MicOpt= -1 -1 -1 -1 -1 -1 -1
 NAtoms=      7 NQM=        7 NQMF=       0 NMMI=      0 NMMIF=      0
                NMic=       0 NMicF=      0.
                    Isotopes and Nuclear Properties:
 (Nuclear quadrupole moments (NQMom) in fm**2, nuclear magnetic moments (NMagM)
  in nuclear magnetons)

  Atom         1           2           3           4           5           6           7
 IAtWgt=          23          23          23          23          23          23          23
 AtmWgt=  22.9897697  22.9897697  22.9897697  22.9897697  22.9897697  22.9897697  22.9897697
 NucSpn=           3           3           3           3           3           3           3
 AtZEff=  -0.0000000  -0.0000000  -0.0000000  -0.0000000  -0.0000000  -0.0000000  -0.0000000
 NQMom=   10.4000000  10.4000000  10.4000000  10.4000000  10.4000000  10.4000000  10.4000000
 NMagM=    2.2175200   2.2175200   2.2175200   2.2175200   2.2175200   2.2175200   2.2175200
 AtZNuc=  11.0000000  11.0000000  11.0000000  11.0000000  11.0000000  11.0000000  11.0000000
 Leave Link  101 at Mon Nov 13 18:30:58 2023, MaxMem=  1879048192 cpu:               2.7 elap:               0.2
 (Enter /home/sekinelabo/g16/l103.exe)

 GradGradGradGradGradGradGradGradGradGradGradGradGradGradGradGradGradGrad
 Berny optimization.
 Initialization pass.
 Trust Radius=3.00D-01 FncErr=1.00D-07 GrdErr=1.00D-07 EigMax=2.50D+02 EigMin=1.00D-04
 Number of steps in this run=      2 maximum allowed number of steps=      2.
 GradGradGradGradGradGradGradGradGradGradGradGradGradGradGradGradGradGrad

 Leave Link  103 at Mon Nov 13 18:30:58 2023, MaxMem=  1879048192 cpu:               0.2 elap:               0.0
 (Enter /home/sekinelabo/g16/l202.exe)
                          Input orientation:                          
 ---------------------------------------------------------------------
 Center     Atomic      Atomic             Coordinates (Angstroms)
 Number     Number       Type             X           Y           Z
 ---------------------------------------------------------------------
      1         11           0        4.217637    0.000000    3.190930
      2         11           0        0.000000    0.334808    4.401794
      3         11           0        6.162544    2.120343    2.366581
      4         11           0        4.057150    3.954447    3.441175
      5         11           0        0.007161    4.188281    2.406136
      6         11           0        1.946261    1.925559    2.764916
      7         11           0        1.476126    0.857727    0.000000
 ---------------------------------------------------------------------
                    Distance matrix (angstroms):
                    1          2          3          4          5
     1  Na   0.000000
     2  Na   4.400767   0.000000
     3  Na   2.993002   6.731060   0.000000
     4  Na   3.965606   5.521326   2.991885   0.000000
     5  Na   5.990468   4.339580   6.493586   4.186692   0.000000
     6  Na   3.008058   2.999631   4.239534   3.004923   3.001456
     7  Na   4.293438   4.672064   5.399761   5.300287   4.363477
                    6          7
     6  Na   0.000000
     7  Na   3.001009   0.000000
 Stoichiometry    Na7(2)
 Framework group  C1[X(Na7)]
 Deg. of freedom    15
 Full point group                 C1      NOp   1
 Largest Abelian subgroup         C1      NOp   1
 Largest concise Abelian subgroup C1      NOp   1
                         Standard orientation:                         
 ---------------------------------------------------------------------
 Center     Atomic      Atomic             Coordinates (Angstroms)
 Number     Number       Type             X           Y           Z
 ---------------------------------------------------------------------
      1         11           0       -1.665226   -1.911595   -0.537854
      2         11           0        2.552411   -1.576787   -1.748718
      3         11           0       -3.610132    0.208748    0.286495
      4         11           0       -1.504738    2.042852   -0.788099
      5         11           0        2.545250    2.276686    0.246940
      6         11           0        0.606150    0.013964   -0.111840
      7         11           0        1.076285   -1.053868    2.653076
 ---------------------------------------------------------------------
 Rotational constants (GHZ):           0.7903442           0.5024410           0.4464362
 Leave Link  202 at Mon Nov 13 18:30:58 2023, MaxMem=  1879048192 cpu:               0.0 elap:               0.0
 (Enter /home/sekinelabo/g16/l301.exe)
 Standard basis: 6-311+G(d) (5D, 7F)
 Ernie: Thresh=  0.10000D-02 Tol=  0.10000D-05 Strict=F.
 There are   217 symmetry adapted cartesian basis functions of A   symmetry.
 There are   210 symmetry adapted basis functions of A   symmetry.
   210 basis functions,   350 primitive gaussians,   217 cartesian basis functions
    39 alpha electrons       38 beta electrons
       nuclear repulsion energy       334.1435267970 Hartrees.
 IExCor=  402 DFT=T Ex+Corr=B3LYP ExCW=0 ScaHFX=  0.200000
 ScaDFX=  0.800000  0.720000  1.000000  0.810000 ScalE2=  1.000000  1.000000
 IRadAn=      5 IRanWt=     -1 IRanGd=            0 ICorTp=0 IEmpDi=  4
 NAtoms=    7 NActive=    7 NUniq=    7 SFac= 1.00D+00 NAtFMM=   60 NAOKFM=F Big=F
 Integral buffers will be    131072 words long.
 Raffenetti 2 integral format.
 Two-electron integral symmetry is turned on.
 Leave Link  301 at Mon Nov 13 18:30:58 2023, MaxMem=  1879048192 cpu:               0.5 elap:               0.0
 (Enter /home/sekinelabo/g16/l302.exe)
 NPDir=0 NMtPBC=     1 NCelOv=     1 NCel=       1 NClECP=     1 NCelD=      1
         NCelK=      1 NCelE2=     1 NClLst=     1 CellRange=     0.0.
 One-electron integrals computed using PRISM.
 One-electron integral symmetry used in STVInt
 NBasis=   210 RedAO= T EigKep=  1.31D-06  NBF=   210
 NBsUse=   210 1.00D-06 EigRej= -1.00D+00 NBFU=   210
 Precomputing XC quadrature grid using
 IXCGrd= 4 IRadAn=           5 IRanWt=          -1 IRanGd=           0 AccXCQ= 0.00D+00.
 Generated NRdTot=       0 NPtTot=           0 NUsed=           0 NTot=          32
 NSgBfM=   210   210   210   210   210 MxSgAt=     7 MxSgA2=     7.
 Leave Link  302 at Mon Nov 13 18:30:59 2023, MaxMem=  1879048192 cpu:               2.2 elap:               0.1
 (Enter /home/sekinelabo/g16/l303.exe)
 DipDrv:  MaxL=1.
 Leave Link  303 at Mon Nov 13 18:30:59 2023, MaxMem=  1879048192 cpu:               0.6 elap:               0.0
 (Enter /home/sekinelabo/g16/l401.exe)
 ExpMin= 7.60D-03 ExpMax= 3.62D+04 ExpMxC= 1.21D+03 IAcc=3 IRadAn=         5 AccDes= 0.00D+00
 Harris functional with IExCor=  402 and IRadAn=       5 diagonalized for initial guess.
 HarFok:  IExCor=  402 AccDes= 0.00D+00 IRadAn=         5 IDoV= 1 UseB2=F ITyADJ=14
 ICtDFT=  3500011 ScaDFX=  1.000000  1.000000  1.000000  1.000000
 FoFCou: FMM=F IPFlag=           0 FMFlag=      100000 FMFlg1=           0
         NFxFlg=           0 DoJE=T BraDBF=F KetDBF=T FulRan=T
         wScrn=  0.000000 ICntrl=       500 IOpCl=  0 I1Cent=   200000004 NGrid=           0
         NMat0=    1 NMatS0=      1 NMatT0=    0 NMatD0=    1 NMtDS0=    0 NMtDT0=    0
 Petite list used in FoFCou.
 Harris En= -1135.87655270476    
 JPrj=0 DoOrth=F DoCkMO=F.
 Initial guess <Sx>= 0.0000 <Sy>= 0.0000 <Sz>= 0.5000 <S**2>= 0.7500 S= 0.5000
 Leave Link  401 at Mon Nov 13 18:30:59 2023, MaxMem=  1879048192 cpu:               4.6 elap:               0.3
 (Enter /home/sekinelabo/g16/l502.exe)
 Keep R1 and R2 ints in memory in canonical form, NReq=507620374.
 FoFCou: FMM=F IPFlag=           0 FMFlag=           0 FMFlg1=           0
         NFxFlg=           0 DoJE=F BraDBF=F KetDBF=F FulRan=T
         wScrn=  0.000000 ICntrl=       600 IOpCl=  0 I1Cent=           0 NGrid=           0
         NMat0=    1 NMatS0=  22155 NMatT0=    0 NMatD0=    1 NMtDS0=    0 NMtDT0=    0
 Symmetry not used in FoFCou.
 Two-electron integral symmetry not used.
 UHF open shell SCF:
 Using DIIS extrapolation, IDIIS=  1040.
 NGot=  1879048192 LenX=  1388082362 LenY=  1388034832
 Requested convergence on RMS density matrix=1.00D-08 within 128 cycles.
 Requested convergence on MAX density matrix=1.00D-06.
 Requested convergence on             energy=1.00D-06.
 No special actions if energy rises.

 Cycle   1  Pass 1  IDiag  1:
 E= -1136.06395094584    
 DIIS: error= 1.04D-02 at cycle   1 NSaved=   1.
 NSaved= 1 IEnMin= 1 EnMin= -1136.06395094584     IErMin= 1 ErrMin= 1.04D-02
 ErrMax= 1.04D-02  0.00D+00 EMaxC= 1.00D-01 BMatC= 1.98D-01 BMatP= 1.98D-01
 IDIUse=3 WtCom= 8.96D-01 WtEn= 1.04D-01
 Coeff-Com:  0.100D+01
 Coeff-En:   0.100D+01
 Coeff:      0.100D+01
 Gap=     0.043 Goal=   None    Shift=    0.000
 Gap=     0.033 Goal=   None    Shift=    0.000
 GapD=    0.033 DampG=0.250 DampE=0.500 DampFc=0.2500 IDamp=-1.
 Damping current iteration by 2.50D-01
 RMSDP=3.82D-02 MaxDP=2.78D+00              OVMax= 2.64D-01

 Cycle   2  Pass 1  IDiag  1:
 E= -1136.07823907100     Delta-E=       -0.014288125162 Rises=F Damp=T
 DIIS: error= 7.27D-03 at cycle   2 NSaved=   2.
 NSaved= 2 IEnMin= 2 EnMin= -1136.07823907100     IErMin= 2 ErrMin= 7.27D-03
 ErrMax= 7.27D-03  0.00D+00 EMaxC= 1.00D-01 BMatC= 7.44D-02 BMatP= 1.98D-01
 IDIUse=3 WtCom= 9.27D-01 WtEn= 7.27D-02
 Coeff-Com: -0.123D+01 0.223D+01
 Coeff-En:   0.000D+00 0.100D+01
 Coeff:     -0.114D+01 0.214D+01
 Gap=     0.055 Goal=   None    Shift=    0.000
 Gap=     0.040 Goal=   None    Shift=    0.000
 RMSDP=2.10D-02 MaxDP=1.52D+00 DE=-1.43D-02 OVMax= 1.92D-01

 Cycle   3  Pass 1  IDiag  1:
 E= -1136.10096426004     Delta-E=       -0.022725189039 Rises=F Damp=F
 DIIS: error= 3.64D-03 at cycle   3 NSaved=   3.
 NSaved= 3 IEnMin= 3 EnMin= -1136.10096426004     IErMin= 3 ErrMin= 3.64D-03
 ErrMax= 3.64D-03  0.00D+00 EMaxC= 1.00D-01 BMatC= 4.73D-03 BMatP= 7.44D-02
 IDIUse=3 WtCom= 9.64D-01 WtEn= 3.64D-02
 Coeff-Com: -0.312D+00 0.551D+00 0.761D+00
 Coeff-En:   0.000D+00 0.000D+00 0.100D+01
 Coeff:     -0.301D+00 0.531D+00 0.770D+00
 Gap=     0.049 Goal=   None    Shift=    0.000
 Gap=     0.037 Goal=   None    Shift=    0.000
 RMSDP=7.52D-03 MaxDP=4.49D-01 DE=-2.27D-02 OVMax= 7.57D-02

 Cycle   4  Pass 1  IDiag  1:
 E= -1136.10220406452     Delta-E=       -0.001239804481 Rises=F Damp=F
 DIIS: error= 2.97D-03 at cycle   4 NSaved=   4.
 NSaved= 4 IEnMin= 4 EnMin= -1136.10220406452     IErMin= 4 ErrMin= 2.97D-03
 ErrMax= 2.97D-03  0.00D+00 EMaxC= 1.00D-01 BMatC= 3.11D-03 BMatP= 4.73D-03
 IDIUse=3 WtCom= 9.70D-01 WtEn= 2.97D-02
 Coeff-Com: -0.107D-01 0.137D-01 0.447D+00 0.550D+00
 Coeff-En:   0.000D+00 0.000D+00 0.405D+00 0.595D+00
 Coeff:     -0.104D-01 0.133D-01 0.446D+00 0.551D+00
 Gap=     0.051 Goal=   None    Shift=    0.000
 Gap=     0.038 Goal=   None    Shift=    0.000
 RMSDP=2.72D-03 MaxDP=1.87D-01 DE=-1.24D-03 OVMax= 3.66D-02

 Cycle   5  Pass 1  IDiag  1:
 E= -1136.10442056381     Delta-E=       -0.002216499289 Rises=F Damp=F
 DIIS: error= 2.64D-04 at cycle   5 NSaved=   5.
 NSaved= 5 IEnMin= 5 EnMin= -1136.10442056381     IErMin= 5 ErrMin= 2.64D-04
 ErrMax= 2.64D-04  0.00D+00 EMaxC= 1.00D-01 BMatC= 2.48D-05 BMatP= 3.11D-03
 IDIUse=3 WtCom= 9.97D-01 WtEn= 2.64D-03
 Coeff-Com: -0.701D-02 0.858D-02 0.218D+00 0.275D+00 0.505D+00
 Coeff-En:   0.000D+00 0.000D+00 0.000D+00 0.000D+00 0.100D+01
 Coeff:     -0.699D-02 0.855D-02 0.218D+00 0.274D+00 0.506D+00
 Gap=     0.051 Goal=   None    Shift=    0.000
 Gap=     0.038 Goal=   None    Shift=    0.000
 RMSDP=6.16D-04 MaxDP=4.80D-02 DE=-2.22D-03 OVMax= 1.17D-02

 Cycle   6  Pass 1  IDiag  1:
 E= -1136.10444355972     Delta-E=       -0.000022995909 Rises=F Damp=F
 DIIS: error= 1.85D-04 at cycle   6 NSaved=   6.
 NSaved= 6 IEnMin= 6 EnMin= -1136.10444355972     IErMin= 6 ErrMin= 1.85D-04
 ErrMax= 1.85D-04  0.00D+00 EMaxC= 1.00D-01 BMatC= 1.07D-05 BMatP= 2.48D-05
 IDIUse=3 WtCom= 9.98D-01 WtEn= 1.85D-03
 Coeff-Com: -0.227D-02 0.271D-02-0.325D-01-0.332D-01 0.400D+00 0.665D+00
 Coeff-En:   0.000D+00 0.000D+00 0.000D+00 0.000D+00 0.293D+00 0.707D+00
 Coeff:     -0.226D-02 0.271D-02-0.324D-01-0.331D-01 0.400D+00 0.665D+00
 Gap=     0.051 Goal=   None    Shift=    0.000
 Gap=     0.039 Goal=   None    Shift=    0.000
 RMSDP=3.10D-04 MaxDP=1.60D-02 DE=-2.30D-05 OVMax= 7.36D-03

 Cycle   7  Pass 1  IDiag  1:
 E= -1136.10446220187     Delta-E=       -0.000018642150 Rises=F Damp=F
 DIIS: error= 5.31D-05 at cycle   7 NSaved=   7.
 NSaved= 7 IEnMin= 7 EnMin= -1136.10446220187     IErMin= 7 ErrMin= 5.31D-05
 ErrMax= 5.31D-05  0.00D+00 EMaxC= 1.00D-01 BMatC= 1.03D-06 BMatP= 1.07D-05
 IDIUse=1 WtCom= 1.00D+00 WtEn= 0.00D+00
 Coeff-Com: -0.219D-03 0.200D-03-0.354D-01-0.408D-01 0.128D+00 0.303D+00
 Coeff-Com:  0.646D+00
 Coeff:     -0.219D-03 0.200D-03-0.354D-01-0.408D-01 0.128D+00 0.303D+00
 Coeff:      0.646D+00
 Gap=     0.051 Goal=   None    Shift=    0.000
 Gap=     0.039 Goal=   None    Shift=    0.000
 RMSDP=9.94D-05 MaxDP=5.41D-03 DE=-1.86D-05 OVMax= 3.49D-03

 Cycle   8  Pass 1  IDiag  1:
 E= -1136.10446506814     Delta-E=       -0.000002866270 Rises=F Damp=F
 DIIS: error= 2.91D-05 at cycle   8 NSaved=   8.
 NSaved= 8 IEnMin= 8 EnMin= -1136.10446506814     IErMin= 8 ErrMin= 2.91D-05
 ErrMax= 2.91D-05  0.00D+00 EMaxC= 1.00D-01 BMatC= 3.97D-07 BMatP= 1.03D-06
 IDIUse=1 WtCom= 1.00D+00 WtEn= 0.00D+00
 Coeff-Com:  0.129D-02-0.164D-02-0.675D-02-0.100D-01-0.925D-01-0.106D+00
 Coeff-Com:  0.351D+00 0.865D+00
 Coeff:      0.129D-02-0.164D-02-0.675D-02-0.100D-01-0.925D-01-0.106D+00
 Coeff:      0.351D+00 0.865D+00
 Gap=     0.051 Goal=   None    Shift=    0.000
 Gap=     0.039 Goal=   None    Shift=    0.000
 RMSDP=8.64D-05 MaxDP=3.29D-03 DE=-2.87D-06 OVMax= 2.98D-03

 Cycle   9  Pass 1  IDiag  1:
 E= -1136.10446718056     Delta-E=       -0.000002112416 Rises=F Damp=F
 DIIS: error= 1.76D-05 at cycle   9 NSaved=   9.
 NSaved= 9 IEnMin= 9 EnMin= -1136.10446718056     IErMin= 9 ErrMin= 1.76D-05
 ErrMax= 1.76D-05  0.00D+00 EMaxC= 1.00D-01 BMatC= 8.51D-08 BMatP= 3.97D-07
 IDIUse=1 WtCom= 1.00D+00 WtEn= 0.00D+00
 Coeff-Com:  0.644D-03-0.795D-03 0.848D-02 0.813D-02-0.453D-01-0.904D-01
 Coeff-Com: -0.128D+00 0.253D-01 0.122D+01
 Coeff:      0.644D-03-0.795D-03 0.848D-02 0.813D-02-0.453D-01-0.904D-01
 Coeff:     -0.128D+00 0.253D-01 0.122D+01
 Gap=     0.051 Goal=   None    Shift=    0.000
 Gap=     0.039 Goal=   None    Shift=    0.000
 RMSDP=7.90D-05 MaxDP=3.36D-03 DE=-2.11D-06 OVMax= 2.83D-03

 Cycle  10  Pass 1  IDiag  1:
 E= -1136.10446817402     Delta-E=       -0.000000993460 Rises=F Damp=F
 DIIS: error= 9.42D-06 at cycle  10 NSaved=  10.
 NSaved=10 IEnMin=10 EnMin= -1136.10446817402     IErMin=10 ErrMin= 9.42D-06
 ErrMax= 9.42D-06  0.00D+00 EMaxC= 1.00D-01 BMatC= 2.65D-08 BMatP= 8.51D-08
 IDIUse=1 WtCom= 1.00D+00 WtEn= 0.00D+00
 Coeff-Com: -0.486D-03 0.637D-03 0.408D-02 0.520D-02 0.236D-01 0.173D-01
 Coeff-Com: -0.117D+00-0.261D+00 0.114D+00 0.121D+01
 Coeff:     -0.486D-03 0.637D-03 0.408D-02 0.520D-02 0.236D-01 0.173D-01
 Coeff:     -0.117D+00-0.261D+00 0.114D+00 0.121D+01
 Gap=     0.051 Goal=   None    Shift=    0.000
 Gap=     0.039 Goal=   None    Shift=    0.000
 RMSDP=6.34D-05 MaxDP=3.39D-03 DE=-9.93D-07 OVMax= 1.83D-03

 Cycle  11  Pass 1  IDiag  1:
 E= -1136.10446850644     Delta-E=       -0.000000332422 Rises=F Damp=F
 DIIS: error= 4.32D-06 at cycle  11 NSaved=  11.
 NSaved=11 IEnMin=11 EnMin= -1136.10446850644     IErMin=11 ErrMin= 4.32D-06
 ErrMax= 4.32D-06  0.00D+00 EMaxC= 1.00D-01 BMatC= 8.36D-09 BMatP= 2.65D-08
 IDIUse=1 WtCom= 1.00D+00 WtEn= 0.00D+00
 Coeff-Com: -0.460D-03 0.591D-03-0.141D-02-0.878D-03 0.245D-01 0.360D-01
 Coeff-Com: -0.254D-02-0.827D-01-0.391D+00 0.420D+00 0.998D+00
 Coeff:     -0.460D-03 0.591D-03-0.141D-02-0.878D-03 0.245D-01 0.360D-01
 Coeff:     -0.254D-02-0.827D-01-0.391D+00 0.420D+00 0.998D+00
 Gap=     0.051 Goal=   None    Shift=    0.000
 Gap=     0.039 Goal=   None    Shift=    0.000
 RMSDP=3.76D-05 MaxDP=2.55D-03 DE=-3.32D-07 OVMax= 9.88D-04

 Cycle  12  Pass 1  IDiag  1:
 E= -1136.10446858100     Delta-E=       -0.000000074566 Rises=F Damp=F
 DIIS: error= 2.41D-06 at cycle  12 NSaved=  12.
 NSaved=12 IEnMin=12 EnMin= -1136.10446858100     IErMin=12 ErrMin= 2.41D-06
 ErrMax= 2.41D-06  0.00D+00 EMaxC= 1.00D-01 BMatC= 1.27D-09 BMatP= 8.36D-09
 IDIUse=1 WtCom= 1.00D+00 WtEn= 0.00D+00
 Coeff-Com:  0.356D-04-0.518D-04-0.623D-03-0.616D-03-0.131D-02 0.156D-03
 Coeff-Com:  0.221D-01 0.369D-01-0.998D-01-0.119D+00 0.136D+00 0.103D+01
 Coeff:      0.356D-04-0.518D-04-0.623D-03-0.616D-03-0.131D-02 0.156D-03
 Coeff:      0.221D-01 0.369D-01-0.998D-01-0.119D+00 0.136D+00 0.103D+01
 Gap=     0.051 Goal=   None    Shift=    0.000
 Gap=     0.039 Goal=   None    Shift=    0.000
 RMSDP=1.48D-05 MaxDP=1.36D-03 DE=-7.46D-08 OVMax= 2.78D-04

 Cycle  13  Pass 1  IDiag  1:
 E= -1136.10446859107     Delta-E=       -0.000000010066 Rises=F Damp=F
 DIIS: error= 1.78D-06 at cycle  13 NSaved=  13.
 NSaved=13 IEnMin=13 EnMin= -1136.10446859107     IErMin=13 ErrMin= 1.78D-06
 ErrMax= 1.78D-06  0.00D+00 EMaxC= 1.00D-01 BMatC= 8.23D-10 BMatP= 1.27D-09
 IDIUse=1 WtCom= 1.00D+00 WtEn= 0.00D+00
 Coeff-Com:  0.121D-03-0.160D-03-0.113D-03-0.208D-03-0.586D-02-0.738D-02
 Coeff-Com:  0.136D-01 0.388D-01 0.251D-01-0.165D+00-0.122D+00 0.600D+00
 Coeff-Com:  0.624D+00
 Coeff:      0.121D-03-0.160D-03-0.113D-03-0.208D-03-0.586D-02-0.738D-02
 Coeff:      0.136D-01 0.388D-01 0.251D-01-0.165D+00-0.122D+00 0.600D+00
 Coeff:      0.624D+00
 Gap=     0.051 Goal=   None    Shift=    0.000
 Gap=     0.039 Goal=   None    Shift=    0.000
 RMSDP=5.82D-06 MaxDP=4.56D-04 DE=-1.01D-08 OVMax= 1.18D-04

 Cycle  14  Pass 1  IDiag  1:
 E= -1136.10446859393     Delta-E=       -0.000000002860 Rises=F Damp=F
 DIIS: error= 9.37D-07 at cycle  14 NSaved=  14.
 NSaved=14 IEnMin=14 EnMin= -1136.10446859393     IErMin=14 ErrMin= 9.37D-07
 ErrMax= 9.37D-07  0.00D+00 EMaxC= 1.00D-01 BMatC= 1.74D-10 BMatP= 8.23D-10
 IDIUse=1 WtCom= 1.00D+00 WtEn= 0.00D+00
 Coeff-Com:  0.202D-04-0.246D-04 0.112D-03 0.632D-04-0.867D-03-0.184D-02
 Coeff-Com: -0.697D-02-0.490D-02 0.586D-01-0.101D-01-0.851D-01-0.284D+00
 Coeff-Com:  0.181D+00 0.115D+01
 Coeff:      0.202D-04-0.246D-04 0.112D-03 0.632D-04-0.867D-03-0.184D-02
 Coeff:     -0.697D-02-0.490D-02 0.586D-01-0.101D-01-0.851D-01-0.284D+00
 Coeff:      0.181D+00 0.115D+01
 Gap=     0.051 Goal=   None    Shift=    0.000
 Gap=     0.039 Goal=   None    Shift=    0.000
 RMSDP=5.77D-06 MaxDP=4.53D-04 DE=-2.86D-09 OVMax= 9.72D-05

 Cycle  15  Pass 1  IDiag  1:
 E= -1136.10446859559     Delta-E=       -0.000000001665 Rises=F Damp=F
 DIIS: error= 3.77D-07 at cycle  15 NSaved=  15.
 NSaved=15 IEnMin=15 EnMin= -1136.10446859559     IErMin=15 ErrMin= 3.77D-07
 ErrMax= 3.77D-07  0.00D+00 EMaxC= 1.00D-01 BMatC= 4.01D-11 BMatP= 1.74D-10
 IDIUse=1 WtCom= 1.00D+00 WtEn= 0.00D+00
 Coeff-Com: -0.337D-04 0.444D-04 0.465D-04 0.715D-04 0.152D-02 0.151D-02
 Coeff-Com: -0.214D-02-0.558D-02-0.235D-01 0.507D-01 0.353D-01-0.397D-01
 Coeff-Com: -0.200D+00-0.420D+00 0.160D+01
 Coeff:     -0.337D-04 0.444D-04 0.465D-04 0.715D-04 0.152D-02 0.151D-02
 Coeff:     -0.214D-02-0.558D-02-0.235D-01 0.507D-01 0.353D-01-0.397D-01
 Coeff:     -0.200D+00-0.420D+00 0.160D+01
 Gap=     0.051 Goal=   None    Shift=    0.000
 Gap=     0.039 Goal=   None    Shift=    0.000
 RMSDP=4.33D-06 MaxDP=4.77D-04 DE=-1.66D-09 OVMax= 7.79D-05

 Cycle  16  Pass 1  IDiag  1:
 E= -1136.10446859625     Delta-E=       -0.000000000652 Rises=F Damp=F
 DIIS: error= 1.88D-07 at cycle  16 NSaved=  16.
 NSaved=16 IEnMin=16 EnMin= -1136.10446859625     IErMin=16 ErrMin= 1.88D-07
 ErrMax= 1.88D-07  0.00D+00 EMaxC= 1.00D-01 BMatC= 9.71D-12 BMatP= 4.01D-11
 IDIUse=1 WtCom= 1.00D+00 WtEn= 0.00D+00
 Coeff-Com: -0.723D-05 0.883D-05-0.217D-04 0.742D-06 0.290D-03 0.639D-03
 Coeff-Com:  0.191D-02-0.166D-03-0.149D-01 0.281D-02 0.262D-01 0.724D-01
 Coeff-Com: -0.508D-01-0.315D+00-0.127D-01 0.129D+01
 Coeff:     -0.723D-05 0.883D-05-0.217D-04 0.742D-06 0.290D-03 0.639D-03
 Coeff:      0.191D-02-0.166D-03-0.149D-01 0.281D-02 0.262D-01 0.724D-01
 Coeff:     -0.508D-01-0.315D+00-0.127D-01 0.129D+01
 Gap=     0.051 Goal=   None    Shift=    0.000
 Gap=     0.039 Goal=   None    Shift=    0.000
 RMSDP=2.31D-06 MaxDP=2.31D-04 DE=-6.52D-10 OVMax= 4.60D-05

 Cycle  17  Pass 1  IDiag  1:
 E= -1136.10446859641     Delta-E=       -0.000000000167 Rises=F Damp=F
 DIIS: error= 9.76D-08 at cycle  17 NSaved=  17.
 NSaved=17 IEnMin=17 EnMin= -1136.10446859641     IErMin=17 ErrMin= 9.76D-08
 ErrMax= 9.76D-08  0.00D+00 EMaxC= 1.00D-01 BMatC= 2.45D-12 BMatP= 9.71D-12
 IDIUse=1 WtCom= 1.00D+00 WtEn= 0.00D+00
 Coeff-Com:  0.535D-05-0.715D-05-0.184D-04-0.196D-04-0.267D-03-0.878D-04
 Coeff-Com:  0.700D-03 0.119D-02 0.220D-02-0.117D-01 0.998D-03 0.150D-01
 Coeff-Com:  0.391D-01 0.559D-01-0.407D+00 0.217D+00 0.109D+01
 Coeff:      0.535D-05-0.715D-05-0.184D-04-0.196D-04-0.267D-03-0.878D-04
 Coeff:      0.700D-03 0.119D-02 0.220D-02-0.117D-01 0.998D-03 0.150D-01
 Coeff:      0.391D-01 0.559D-01-0.407D+00 0.217D+00 0.109D+01
 Gap=     0.051 Goal=   None    Shift=    0.000
 Gap=     0.039 Goal=   None    Shift=    0.000
 RMSDP=1.03D-06 MaxDP=1.27D-04 DE=-1.67D-10 OVMax= 1.96D-05

 Cycle  18  Pass 1  IDiag  1:
 E= -1136.10446859644     Delta-E=       -0.000000000030 Rises=F Damp=F
 DIIS: error= 4.15D-08 at cycle  18 NSaved=  18.
 NSaved=18 IEnMin=18 EnMin= -1136.10446859644     IErMin=18 ErrMin= 4.15D-08
 ErrMax= 4.15D-08  0.00D+00 EMaxC= 1.00D-01 BMatC= 5.52D-13 BMatP= 2.45D-12
 IDIUse=1 WtCom= 1.00D+00 WtEn= 0.00D+00
 Coeff-Com:  0.219D-05-0.273D-05 0.119D-05-0.302D-05-0.575D-04-0.194D-03
 Coeff-Com: -0.487D-03 0.169D-04 0.377D-02 0.822D-04-0.802D-02-0.176D-01
 Coeff-Com:  0.133D-01 0.705D-01 0.280D-01-0.361D+00 0.396D-01 0.123D+01
 Coeff:      0.219D-05-0.273D-05 0.119D-05-0.302D-05-0.575D-04-0.194D-03
 Coeff:     -0.487D-03 0.169D-04 0.377D-02 0.822D-04-0.802D-02-0.176D-01
 Coeff:      0.133D-01 0.705D-01 0.280D-01-0.361D+00 0.396D-01 0.123D+01
 Gap=     0.051 Goal=   None    Shift=    0.000
 Gap=     0.039 Goal=   None    Shift=    0.000
 RMSDP=4.51D-07 MaxDP=4.87D-05 DE=-2.96D-11 OVMax= 9.71D-06

 Cycle  19  Pass 1  IDiag  1:
 E= -1136.10446859645     Delta-E=       -0.000000000004 Rises=F Damp=F
 DIIS: error= 2.05D-08 at cycle  19 NSaved=  19.
 NSaved=19 IEnMin=19 EnMin= -1136.10446859645     IErMin=19 ErrMin= 2.05D-08
 ErrMax= 2.05D-08  0.00D+00 EMaxC= 1.00D-01 BMatC= 1.22D-13 BMatP= 5.52D-13
 IDIUse=1 WtCom= 1.00D+00 WtEn= 0.00D+00
 Coeff-Com: -0.242D-05 0.320D-05 0.597D-05 0.687D-05 0.820D-04 0.133D-03
 Coeff-Com: -0.351D-04-0.439D-03-0.186D-02 0.333D-02 0.241D-02 0.213D-03
 Coeff-Com: -0.126D-01-0.339D-01 0.968D-01 0.296D-01-0.258D+00-0.241D+00
 Coeff-Com:  0.142D+01
 Coeff:     -0.242D-05 0.320D-05 0.597D-05 0.687D-05 0.820D-04 0.133D-03
 Coeff:     -0.351D-04-0.439D-03-0.186D-02 0.333D-02 0.241D-02 0.213D-03
 Coeff:     -0.126D-01-0.339D-01 0.968D-01 0.296D-01-0.258D+00-0.241D+00
 Coeff:      0.142D+01
 Gap=     0.051 Goal=   None    Shift=    0.000
 Gap=     0.039 Goal=   None    Shift=    0.000
 RMSDP=1.72D-07 MaxDP=1.38D-05 DE=-4.09D-12 OVMax= 4.16D-06

 Cycle  20  Pass 1  IDiag  1:
 E= -1136.10446859644     Delta-E=        0.000000000003 Rises=F Damp=F
 DIIS: error= 1.00D-08 at cycle  20 NSaved=  20.
 NSaved=20 IEnMin=19 EnMin= -1136.10446859645     IErMin=20 ErrMin= 1.00D-08
 ErrMax= 1.00D-08  0.00D+00 EMaxC= 1.00D-01 BMatC= 2.04D-14 BMatP= 1.22D-13
 IDIUse=1 WtCom= 1.00D+00 WtEn= 0.00D+00
 Coeff-Com: -0.902D-07 0.892D-07-0.128D-05-0.477D-06-0.403D-05 0.968D-05
 Coeff-Com:  0.149D-03 0.233D-04-0.415D-03-0.580D-03 0.133D-02 0.291D-02
 Coeff-Com: -0.107D-02-0.759D-02-0.177D-01 0.626D-01 0.231D-01-0.193D+00
 Coeff-Com: -0.191D+00 0.132D+01
 Coeff:     -0.902D-07 0.892D-07-0.128D-05-0.477D-06-0.403D-05 0.968D-05
 Coeff:      0.149D-03 0.233D-04-0.415D-03-0.580D-03 0.133D-02 0.291D-02
 Coeff:     -0.107D-02-0.759D-02-0.177D-01 0.626D-01 0.231D-01-0.193D+00
 Coeff:     -0.191D+00 0.132D+01
 Gap=     0.051 Goal=   None    Shift=    0.000
 Gap=     0.039 Goal=   None    Shift=    0.000
 RMSDP=7.16D-08 MaxDP=5.17D-06 DE= 3.41D-12 OVMax= 2.23D-06

 Cycle  21  Pass 1  IDiag  1:
 E= -1136.10446859645     Delta-E=       -0.000000000004 Rises=F Damp=F
 DIIS: error= 4.90D-09 at cycle  21 NSaved=  20.
 NSaved=20 IEnMin=20 EnMin= -1136.10446859645     IErMin=20 ErrMin= 4.90D-09
 ErrMax= 4.90D-09  0.00D+00 EMaxC= 1.00D-01 BMatC= 4.24D-15 BMatP= 2.04D-14
 IDIUse=1 WtCom= 1.00D+00 WtEn= 0.00D+00
 Large coefficients: NSaved= 20 BigCof=    0.00 CofMax=   10.00 Det=-3.38D-15
 Inversion failed.  Reducing to 19 matrices.
 Large coefficients: NSaved= 19 BigCof=    0.00 CofMax=   10.00 Det=-3.40D-15
 Inversion failed.  Reducing to 18 matrices.
 Large coefficients: NSaved= 18 BigCof=    0.00 CofMax=   10.00 Det=-3.45D-15
 Inversion failed.  Reducing to 17 matrices.
 Large coefficients: NSaved= 17 BigCof=    0.00 CofMax=   10.00 Det=-3.93D-15
 Inversion failed.  Reducing to 16 matrices.
 Large coefficients: NSaved= 16 BigCof=    0.00 CofMax=   10.00 Det=-4.37D-15
 Inversion failed.  Reducing to 15 matrices.
 Coeff-Com: -0.344D-04-0.909D-05 0.131D-03 0.121D-04-0.141D-03-0.828D-03
 Coeff-Com:  0.874D-03 0.229D-02-0.179D-02-0.129D-01 0.245D-01 0.320D-01
 Coeff-Com: -0.133D+00-0.131D+00 0.122D+01
 Coeff:     -0.344D-04-0.909D-05 0.131D-03 0.121D-04-0.141D-03-0.828D-03
 Coeff:      0.874D-03 0.229D-02-0.179D-02-0.129D-01 0.245D-01 0.320D-01
 Coeff:     -0.133D+00-0.131D+00 0.122D+01
 Gap=     0.051 Goal=   None    Shift=    0.000
 Gap=     0.039 Goal=   None    Shift=    0.000
 RMSDP=3.39D-08 MaxDP=2.60D-06 DE=-4.32D-12 OVMax= 9.62D-07

 Cycle  22  Pass 1  IDiag  1:
 E= -1136.10446859644     Delta-E=        0.000000000006 Rises=F Damp=F
 DIIS: error= 2.46D-09 at cycle  22 NSaved=  16.
 NSaved=16 IEnMin=15 EnMin= -1136.10446859645     IErMin=16 ErrMin= 2.46D-09
 ErrMax= 2.46D-09  0.00D+00 EMaxC= 1.00D-01 BMatC= 1.57D-15 BMatP= 4.24D-15
 IDIUse=1 WtCom= 1.00D+00 WtEn= 0.00D+00
 Large coefficients: NSaved= 16 BigCof=    0.00 CofMax=   10.00 Det=-1.83D-15
 Inversion failed.  Reducing to 15 matrices.
 Coeff-Com:  0.985D-05-0.113D-04 0.293D-04-0.126D-03 0.107D-03 0.206D-03
 Coeff-Com:  0.271D-04 0.176D-02-0.974D-02 0.482D-02 0.418D-01-0.373D-01
 Coeff-Com: -0.246D+00 0.254D+00 0.990D+00
 Coeff:      0.985D-05-0.113D-04 0.293D-04-0.126D-03 0.107D-03 0.206D-03
 Coeff:      0.271D-04 0.176D-02-0.974D-02 0.482D-02 0.418D-01-0.373D-01
 Coeff:     -0.246D+00 0.254D+00 0.990D+00
 Gap=     0.051 Goal=   None    Shift=    0.000
 Gap=     0.039 Goal=   None    Shift=    0.000
 RMSDP=1.90D-08 MaxDP=1.65D-06 DE= 5.68D-12 OVMax= 5.26D-07

 Cycle  23  Pass 1  IDiag  1:
 E= -1136.10446859644     Delta-E=       -0.000000000002 Rises=F Damp=F
 DIIS: error= 1.27D-09 at cycle  23 NSaved=  16.
 NSaved=16 IEnMin=14 EnMin= -1136.10446859645     IErMin=16 ErrMin= 1.27D-09
 ErrMax= 1.27D-09  0.00D+00 EMaxC= 1.00D-01 BMatC= 4.53D-16 BMatP= 1.57D-15
 IDIUse=1 WtCom= 1.00D+00 WtEn= 0.00D+00
 Large coefficients: NSaved= 16 BigCof=    0.00 CofMax=   10.00 Det=-8.10D-16
 Inversion failed.  Reducing to 15 matrices.
 Coeff-Com: -0.654D-06 0.263D-04-0.559D-04-0.942D-04 0.361D-04 0.227D-03
 Coeff-Com:  0.150D-02-0.405D-02-0.436D-02 0.158D-01 0.330D-01-0.128D+00
 Coeff-Com: -0.138D+00 0.319D+00 0.906D+00
 Coeff:     -0.654D-06 0.263D-04-0.559D-04-0.942D-04 0.361D-04 0.227D-03
 Coeff:      0.150D-02-0.405D-02-0.436D-02 0.158D-01 0.330D-01-0.128D+00
 Coeff:     -0.138D+00 0.319D+00 0.906D+00
 Gap=     0.051 Goal=   None    Shift=    0.000
 Gap=     0.039 Goal=   None    Shift=    0.000
 RMSDP=9.63D-09 MaxDP=9.50D-07 DE=-1.59D-12 OVMax= 2.74D-07

 SCF Done:  E(UB3LYP) =  -1136.10446860     A.U. after   23 cycles
            NFock= 23  Conv=0.96D-08     -V/T= 2.0027
 <Sx>= 0.0000 <Sy>= 0.0000 <Sz>= 0.5000 <S**2>= 0.7732 S= 0.5115
 <L.S>= 0.000000000000E+00
 KE= 1.133010094919D+03 PE=-3.397524582123D+03 EE= 7.942664918099D+02
 Annihilation of the first spin contaminant:
 S**2 before annihilation     0.7732,   after     0.7501
 Leave Link  502 at Mon Nov 13 18:31:18 2023, MaxMem=  1879048192 cpu:             220.5 elap:              19.1
 (Enter /home/sekinelabo/g16/l601.exe)
 Copying SCF densities to generalized density rwf, IOpCl= 1 IROHF=0.

 **********************************************************************

            Population analysis using the SCF Density.

 **********************************************************************

 Orbital symmetries:
 Alpha Orbitals:
       Occupied  (A) (A) (A) (A) (A) (A) (A) (A) (A) (A) (A) (A)
                 (A) (A) (A) (A) (A) (A) (A) (A) (A) (A) (A) (A)
                 (A) (A) (A) (A) (A) (A) (A) (A) (A) (A) (A) (A)
                 (A) (A) (A)
       Virtual   (A) (A) (A) (A) (A) (A) (A) (A) (A) (A) (A) (A)
                 (A) (A) (A) (A) (A) (A) (A) (A) (A) (A) (A) (A)
                 (A) (A) (A) (A) (A) (A) (A) (A) (A) (A) (A) (A)
                 (A) (A) (A) (A) (A) (A) (A) (A) (A) (A) (A) (A)
                 (A) (A) (A) (A) (A) (A) (A) (A) (A) (A) (A) (A)
                 (A) (A) (A) (A) (A) (A) (A) (A) (A) (A) (A) (A)
                 (A) (A) (A) (A) (A) (A) (A) (A) (A) (A) (A) (A)
                 (A) (A) (A) (A) (A) (A) (A) (A) (A) (A) (A) (A)
                 (A) (A) (A) (A) (A) (A) (A) (A) (A) (A) (A) (A)
                 (A) (A) (A) (A) (A) (A) (A) (A) (A) (A) (A) (A)
                 (A) (A) (A) (A) (A) (A) (A) (A) (A) (A) (A) (A)
                 (A) (A) (A) (A) (A) (A) (A) (A) (A) (A) (A) (A)
                 (A) (A) (A) (A) (A) (A) (A) (A) (A) (A) (A) (A)
                 (A) (A) (A) (A) (A) (A) (A) (A) (A) (A) (A) (A)
                 (A) (A) (A)
 Beta  Orbitals:
       Occupied  (A) (A) (A) (A) (A) (A) (A) (A) (A) (A) (A) (A)
                 (A) (A) (A) (A) (A) (A) (A) (A) (A) (A) (A) (A)
                 (A) (A) (A) (A) (A) (A) (A) (A) (A) (A) (A) (A)
                 (A) (A)
       Virtual   (A) (A) (A) (A) (A) (A) (A) (A) (A) (A) (A) (A)
                 (A) (A) (A) (A) (A) (A) (A) (A) (A) (A) (A) (A)
                 (A) (A) (A) (A) (A) (A) (A) (A) (A) (A) (A) (A)
                 (A) (A) (A) (A) (A) (A) (A) (A) (A) (A) (A) (A)
                 (A) (A) (A) (A) (A) (A) (A) (A) (A) (A) (A) (A)
                 (A) (A) (A) (A) (A) (A) (A) (A) (A) (A) (A) (A)
                 (A) (A) (A) (A) (A) (A) (A) (A) (A) (A) (A) (A)
                 (A) (A) (A) (A) (A) (A) (A) (A) (A) (A) (A) (A)
                 (A) (A) (A) (A) (A) (A) (A) (A) (A) (A) (A) (A)
                 (A) (A) (A) (A) (A) (A) (A) (A) (A) (A) (A) (A)
                 (A) (A) (A) (A) (A) (A) (A) (A) (A) (A) (A) (A)
                 (A) (A) (A) (A) (A) (A) (A) (A) (A) (A) (A) (A)
                 (A) (A) (A) (A) (A) (A) (A) (A) (A) (A) (A) (A)
                 (A) (A) (A) (A) (A) (A) (A) (A) (A) (A) (A) (A)
                 (A) (A) (A) (A)
 The electronic state is 2-A.
 Alpha  occ. eigenvalues --  -38.44737 -38.44670 -38.44646 -38.44058 -38.43925
 Alpha  occ. eigenvalues --  -38.43742 -38.42591  -2.20625  -2.20494  -2.20482
 Alpha  occ. eigenvalues --   -2.19864  -2.19811  -2.19625  -2.18787  -1.14321
 Alpha  occ. eigenvalues --   -1.14314  -1.14256  -1.14188  -1.14176  -1.14118
 Alpha  occ. eigenvalues --   -1.14093  -1.14090  -1.14066  -1.13586  -1.13545
 Alpha  occ. eigenvalues --   -1.13511  -1.13486  -1.13459  -1.13419  -1.13369
 Alpha  occ. eigenvalues --   -1.13284  -1.13217  -1.12508  -1.12464  -1.12389
 Alpha  occ. eigenvalues --   -0.18277  -0.13820  -0.11346  -0.11274
 Alpha virt. eigenvalues --   -0.06167  -0.05784  -0.03842  -0.03380  -0.02669
 Alpha virt. eigenvalues --   -0.02425  -0.01965  -0.01337  -0.00528  -0.00112
 Alpha virt. eigenvalues --    0.00113   0.00201   0.00529   0.00800   0.00837
 Alpha virt. eigenvalues --    0.00932   0.01037   0.01103   0.01226   0.01275
 Alpha virt. eigenvalues --    0.01386   0.01513   0.01629   0.01797   0.01919
 Alpha virt. eigenvalues --    0.02196   0.02403   0.02549   0.02593   0.02689
 Alpha virt. eigenvalues --    0.02783   0.02832   0.02924   0.03110   0.03164
 Alpha virt. eigenvalues --    0.03249   0.03371   0.03466   0.03617   0.03819
 Alpha virt. eigenvalues --    0.04022   0.04157   0.04223   0.04409   0.04501
 Alpha virt. eigenvalues --    0.04819   0.05190   0.05397   0.05605   0.05955
 Alpha virt. eigenvalues --    0.06160   0.06307   0.06831   0.07168   0.07333
 Alpha virt. eigenvalues --    0.07783   0.08266   0.08480   0.08730   0.09015
 Alpha virt. eigenvalues --    0.09452   0.10015   0.10394   0.10464   0.11190
 Alpha virt. eigenvalues --    0.11310   0.11681   0.12117   0.12313   0.12746
 Alpha virt. eigenvalues --    0.13172   0.13842   0.14091   0.14449   0.15015
 Alpha virt. eigenvalues --    0.15804   0.15968   0.17857   0.19335   0.20619
 Alpha virt. eigenvalues --    0.24107   0.26085   0.28820   0.29080   0.29887
 Alpha virt. eigenvalues --    0.30168   0.31525   0.32118   0.33356   0.34193
 Alpha virt. eigenvalues --    0.34948   0.35572   0.35968   0.36702   0.36765
 Alpha virt. eigenvalues --    0.37431   0.37776   0.39477   0.39797   0.40507
 Alpha virt. eigenvalues --    0.42212   0.43165   0.43652   0.44297   0.44791
 Alpha virt. eigenvalues --    0.44906   0.45245   0.45417   0.45605   0.45952
 Alpha virt. eigenvalues --    0.46421   0.46575   0.47178   0.48383   0.48557
 Alpha virt. eigenvalues --    0.49078   0.49476   0.50346   0.50712   0.50931
 Alpha virt. eigenvalues --    0.52033   0.52897   0.54054   0.55556   0.57097
 Alpha virt. eigenvalues --    0.57733   0.58658   0.59836   0.62040   0.64105
 Alpha virt. eigenvalues --    0.67737   0.72495   0.72879   0.77147   0.78293
 Alpha virt. eigenvalues --    0.83715   2.09120   2.11576   2.12962   2.14669
 Alpha virt. eigenvalues --    2.19373   2.19945   2.33695   4.41625   4.42316
 Alpha virt. eigenvalues --    4.43445   4.43917   4.44609   4.45112   4.45178
 Alpha virt. eigenvalues --    4.45424   4.46572   4.46803   4.47421   4.48279
 Alpha virt. eigenvalues --    4.48936   4.50054   4.55203   4.61494   4.64246
 Alpha virt. eigenvalues --    4.66906   4.69878   4.72708   4.76604  96.29993
 Alpha virt. eigenvalues --   96.33329  96.35067  96.37034  96.43354  96.44460
 Alpha virt. eigenvalues --   96.62497
  Beta  occ. eigenvalues --  -38.44743 -38.44594 -38.44534 -38.44055 -38.43929
  Beta  occ. eigenvalues --  -38.43744 -38.42569  -2.20635  -2.20353  -2.20276
  Beta  occ. eigenvalues --   -2.19859  -2.19820  -2.19629  -2.18759  -1.14333
  Beta  occ. eigenvalues --   -1.14321  -1.14259  -1.14092  -1.14037  -1.14020
  Beta  occ. eigenvalues --   -1.13994  -1.13953  -1.13923  -1.13586  -1.13552
  Beta  occ. eigenvalues --   -1.13495  -1.13484  -1.13452  -1.13425  -1.13371
  Beta  occ. eigenvalues --   -1.13284  -1.13219  -1.12463  -1.12391  -1.12379
  Beta  occ. eigenvalues --   -0.17731  -0.13488  -0.11146
  Beta virt. eigenvalues --   -0.07260  -0.06017  -0.05604  -0.03446  -0.03064
  Beta virt. eigenvalues --   -0.02102  -0.02029  -0.01604  -0.01073  -0.00203
  Beta virt. eigenvalues --   -0.00053   0.00142   0.00248   0.00684   0.00799
  Beta virt. eigenvalues --    0.00889   0.00963   0.01098   0.01139   0.01379
  Beta virt. eigenvalues --    0.01412   0.01476   0.01612   0.01706   0.01819
  Beta virt. eigenvalues --    0.02109   0.02248   0.02389   0.02550   0.02656
  Beta virt. eigenvalues --    0.02712   0.02824   0.02912   0.02968   0.03174
  Beta virt. eigenvalues --    0.03211   0.03302   0.03464   0.03621   0.03686
  Beta virt. eigenvalues --    0.03926   0.04101   0.04187   0.04382   0.04548
  Beta virt. eigenvalues --    0.04594   0.04959   0.05326   0.05451   0.05680
  Beta virt. eigenvalues --    0.06018   0.06218   0.06424   0.06930   0.07239
  Beta virt. eigenvalues --    0.07448   0.08065   0.08285   0.08598   0.08820
  Beta virt. eigenvalues --    0.09155   0.09717   0.10426   0.10526   0.10760
  Beta virt. eigenvalues --    0.11328   0.11575   0.12018   0.12217   0.12480
  Beta virt. eigenvalues --    0.12907   0.13449   0.13923   0.14154   0.14533
  Beta virt. eigenvalues --    0.15311   0.15842   0.16255   0.17995   0.19433
  Beta virt. eigenvalues --    0.20969   0.24142   0.26552   0.29159   0.29204
  Beta virt. eigenvalues --    0.30062   0.30650   0.31667   0.32198   0.33885
  Beta virt. eigenvalues --    0.34298   0.35387   0.36146   0.36758   0.37004
  Beta virt. eigenvalues --    0.37266   0.37712   0.38264   0.39630   0.40268
  Beta virt. eigenvalues --    0.41012   0.42309   0.43238   0.43728   0.44380
  Beta virt. eigenvalues --    0.44890   0.44994   0.45441   0.45637   0.45722
  Beta virt. eigenvalues --    0.46123   0.46500   0.46666   0.47306   0.48526
  Beta virt. eigenvalues --    0.48826   0.49275   0.49536   0.50392   0.50851
  Beta virt. eigenvalues --    0.51124   0.52104   0.53052   0.54067   0.55820
  Beta virt. eigenvalues --    0.57375   0.57807   0.58850   0.60003   0.62246
  Beta virt. eigenvalues --    0.64295   0.67696   0.72436   0.72884   0.77202
  Beta virt. eigenvalues --    0.78487   0.83629   2.09124   2.11971   2.13133
  Beta virt. eigenvalues --    2.14866   2.19365   2.19946   2.33738   4.41623
  Beta virt. eigenvalues --    4.42324   4.43493   4.43999   4.44644   4.45209
  Beta virt. eigenvalues --    4.45255   4.45473   4.46645   4.46911   4.47497
  Beta virt. eigenvalues --    4.48300   4.48960   4.50137   4.55263   4.61502
  Beta virt. eigenvalues --    4.64236   4.66903   4.70010   4.72712   4.76617
  Beta virt. eigenvalues --   96.29995  96.33455  96.35128  96.37092  96.43350
  Beta virt. eigenvalues --   96.44463  96.62522
          Condensed to atoms (all electrons):
               1          2          3          4          5          6
     1  Na  14.483728   1.178178  -0.256386  -0.718551  -3.275820  -1.467754
     2  Na   1.178178  11.783116  -0.080863  -0.727384  -0.567627  -1.081664
     3  Na  -0.256386  -0.080863  10.531013  -0.056360   0.102610   0.350192
     4  Na  -0.718551  -0.727384  -0.056360  11.681836   0.426917   0.459025
     5  Na  -3.275820  -0.567627   0.102610   0.426917  14.314582  -0.524946
     6  Na  -1.467754  -1.081664   0.350192   0.459025  -0.524946  15.755324
     7  Na   0.131681   0.045961   0.037013   0.113483  -0.143956  -0.139809
               7
     1  Na   0.131681
     2  Na   0.045961
     3  Na   0.037013
     4  Na   0.113483
     5  Na  -0.143956
     6  Na  -0.139809
     7  Na  10.842522
          Atomic-Atomic Spin Densities.
               1          2          3          4          5          6
     1  Na   0.777124   0.056973  -0.187389  -0.170167  -0.511180   0.094915
     2  Na   0.056973   0.062186  -0.083828   0.126817  -0.038545   0.294035
     3  Na  -0.187389  -0.083828   0.007150   0.126004   0.072477   0.067419
     4  Na  -0.170167   0.126817   0.126004  -0.284775   0.206364  -0.278469
     5  Na  -0.511180  -0.038545   0.072477   0.206364   0.615511  -0.357950
     6  Na   0.094915   0.294035   0.067419  -0.278469  -0.357950   0.280221
     7  Na   0.049131   0.085395   0.014609  -0.014427  -0.021953   0.055174
               7
     1  Na   0.049131
     2  Na   0.085395
     3  Na   0.014609
     4  Na  -0.014427
     5  Na  -0.021953
     6  Na   0.055174
     7  Na   0.371775
 Mulliken charges and spin densities:
               1          2
     1  Na   0.924923   0.109406
     2  Na   0.450284   0.503033
     3  Na   0.372781   0.016442
     4  Na  -0.178964  -0.288654
     5  Na   0.668240  -0.035275
     6  Na  -2.350368   0.155345
     7  Na   0.113104   0.539703
 Sum of Mulliken charges =  -0.00000   1.00000
 Mulliken charges and spin densities with hydrogens summed into heavy atoms:
               1          2
     1  Na   0.924923   0.109406
     2  Na   0.450284   0.503033
     3  Na   0.372781   0.016442
     4  Na  -0.178964  -0.288654
     5  Na   0.668240  -0.035275
     6  Na  -2.350368   0.155345
     7  Na   0.113104   0.539703
 Electronic spatial extent (au):  <R**2>=           2515.0568
 Charge=             -0.0000 electrons
 Dipole moment (field-independent basis, Debye):
    X=             -0.1976    Y=             -0.2013    Z=              0.3581  Tot=              0.4559
 Quadrupole moment (field-independent basis, Debye-Ang):
   XX=            -51.4818   YY=            -71.7613   ZZ=            -68.1677
   XY=              1.0304   XZ=             -1.8357   YZ=              1.0489
 Traceless Quadrupole moment (field-independent basis, Debye-Ang):
   XX=             12.3218   YY=             -7.9577   ZZ=             -4.3641
   XY=              1.0304   XZ=             -1.8357   YZ=              1.0489
 Octapole moment (field-independent basis, Debye-Ang**2):
  XXX=            -17.9302  YYY=              4.1786  ZZZ=             11.5674  XYY=              9.5674
  XXY=              4.6687  XXZ=              4.2662  XZZ=              7.0387  YZZ=             -9.8334
  YYZ=             -6.0721  XYZ=              5.6815
 Hexadecapole moment (field-independent basis, Debye-Ang**3):
 XXXX=          -1793.3494 YYYY=          -1362.9931 ZZZZ=           -932.6917 XXXY=             18.9058
 XXXZ=            -92.9219 YYYX=             43.8427 YYYZ=             14.0407 ZZZX=              4.7313
 ZZZY=            -14.5236 XXYY=           -506.7815 XXZZ=           -488.5665 YYZZ=           -379.3245
 XXYZ=             40.5659 YYXZ=             15.4388 ZZXY=            -31.3102
 N-N= 3.341435267970D+02 E-N=-3.397524582062D+03  KE= 1.133010094919D+03
                          Isotropic Fermi Contact Couplings
        Atom                 a.u.       MegaHertz       Gauss      10(-4) cm-1
     1  Na(23)            -0.03616     -42.77430     -15.26293     -14.26797
     2  Na(23)             0.32102     379.77140     135.51188     126.67810
     3  Na(23)            -0.02270     -26.85640      -9.58303      -8.95833
     4  Na(23)            -0.01289     -15.24401      -5.43944      -5.08486
     5  Na(23)            -0.00153      -1.81001      -0.64586      -0.60376
     6  Na(23)            -0.03173     -37.54089     -13.39552     -12.52229
     7  Na(23)             0.47328     559.90805     199.78912     186.76522
 --------------------------------------------------------
       Center         ----  Spin Dipole Couplings  ----
                      3XX-RR        3YY-RR        3ZZ-RR
 --------------------------------------------------------
     1   Atom       -0.010023     -0.005835      0.015858
     2   Atom        0.000253      0.003080     -0.003333
     3   Atom        0.003192     -0.009715      0.006523
     4   Atom       -0.005024      0.000227      0.004797
     5   Atom       -0.005210     -0.007863      0.013073
     6   Atom       -0.044034     -0.049650      0.093685
     7   Atom        0.001684      0.007788     -0.009472
 --------------------------------------------------------
                        XY            XZ            YZ
 --------------------------------------------------------
     1   Atom        0.001291     -0.005800     -0.001596
     2   Atom       -0.002098      0.007465     -0.004313
     3   Atom       -0.000697      0.000558      0.000199
     4   Atom       -0.001255      0.001116      0.002230
     5   Atom        0.001076     -0.004379     -0.001053
     6   Atom       -0.003251     -0.016412      0.011718
     7   Atom       -0.001119     -0.000148     -0.001421
 --------------------------------------------------------


 ---------------------------------------------------------------------------------
              Anisotropic Spin Dipole Couplings in Principal Axis System
 ---------------------------------------------------------------------------------

       Atom             a.u.   MegaHertz   Gauss  10(-4) cm-1        Axes

              Baa    -0.0114    -1.613    -0.576    -0.538  0.9663 -0.1675  0.1956
     1 Na(23) Bbb    -0.0058    -0.822    -0.293    -0.274  0.1477  0.9827  0.1119
              Bcc     0.0172     2.435     0.869     0.812 -0.2110 -0.0792  0.9743
 
              Baa    -0.0096    -1.355    -0.484    -0.452 -0.5698  0.1786  0.8021
     2 Na(23) Bbb     0.0003     0.046     0.017     0.015  0.5685  0.7905  0.2279
              Bcc     0.0093     1.309     0.467     0.437  0.5934 -0.5858  0.5520
 
              Baa    -0.0098    -1.378    -0.492    -0.460  0.0543  0.9984 -0.0141
     3 Na(23) Bbb     0.0031     0.444     0.158     0.148  0.9856 -0.0559 -0.1593
              Bcc     0.0066     0.934     0.333     0.312  0.1598  0.0052  0.9871
 
              Baa    -0.0056    -0.786    -0.280    -0.262  0.9502  0.2674 -0.1599
     4 Na(23) Bbb    -0.0002    -0.024    -0.009    -0.008 -0.3069  0.8921 -0.3315
              Bcc     0.0057     0.810     0.289     0.270  0.0540  0.3641  0.9298
 
              Baa    -0.0083    -1.166    -0.416    -0.389 -0.3711  0.9281 -0.0304
     5 Na(23) Bbb    -0.0059    -0.831    -0.296    -0.277  0.9013  0.3679  0.2287
              Bcc     0.0141     1.997     0.713     0.666 -0.2234 -0.0575  0.9730
 
              Baa    -0.0513    -7.242    -2.584    -2.416  0.3359  0.9411 -0.0380
     6 Na(23) Bbb    -0.0453    -6.399    -2.283    -2.135  0.9346 -0.3280  0.1380
              Bcc     0.0966    13.641     4.868     4.550 -0.1174  0.0819  0.9897
 
              Baa    -0.0096    -1.355    -0.483    -0.452  0.0213  0.0828  0.9963
     7 Na(23) Bbb     0.0015     0.212     0.076     0.071  0.9853  0.1674 -0.0350
              Bcc     0.0081     1.143     0.408     0.381 -0.1697  0.9824 -0.0780
 

 ---------------------------------------------------------------------------------

 No NMR shielding tensors so no spin-rotation constants.
 Leave Link  601 at Mon Nov 13 18:31:19 2023, MaxMem=  1879048192 cpu:               4.8 elap:               0.3
 (Enter /home/sekinelabo/g16/l701.exe)
 ... and contract with generalized density number  0.
 Compute integral first derivatives.
 Leave Link  701 at Mon Nov 13 18:31:19 2023, MaxMem=  1879048192 cpu:               1.7 elap:               0.1
 (Enter /home/sekinelabo/g16/l702.exe)
 L702 exits ... SP integral derivatives will be done elsewhere.
 Leave Link  702 at Mon Nov 13 18:31:19 2023, MaxMem=  1879048192 cpu:               0.4 elap:               0.0
 (Enter /home/sekinelabo/g16/l703.exe)
 Integral derivatives from FoFJK, PRISM(SPDF).
 Compute integral first derivatives, UseDBF=F ICtDFT=           0.
 Calling FoFJK, ICntrl=      2127 FMM=F ISym2X=0 I1Cent= 0 IOpClX= 1 NMat=1 NMatS=1 NMatT=0.
 FoFJK:  IHMeth= 1 ICntrl=    2127 DoSepK=F KAlg= 0 I1Cent=           0 FoldK=F
 IRaf=         0 NMat=       1 IRICut=       1 DoRegI=T DoRafI=F ISym2E= 0 IDoP0=0 IntGTp=1.
 FoFCou: FMM=F IPFlag=           0 FMFlag=      100000 FMFlg1=         800
         NFxFlg=           0 DoJE=F BraDBF=F KetDBF=F FulRan=T
         wScrn=  0.000000 ICntrl=      2127 IOpCl=  1 I1Cent=           0 NGrid=           0
         NMat0=    1 NMatS0=      1 NMatT0=    0 NMatD0=    1 NMtDS0=    0 NMtDT0=    0
 Symmetry not used in FoFCou.
 Leave Link  703 at Mon Nov 13 18:31:21 2023, MaxMem=  1879048192 cpu:              34.7 elap:               2.2
 (Enter /home/sekinelabo/g16/l716.exe)
 Dipole        =-7.77607061D-02-7.91854105D-02 1.40887165D-01
 ***** Axes restored to original set *****
 -------------------------------------------------------------------
 Center     Atomic                   Forces (Hartrees/Bohr)
 Number     Number              X              Y              Z
 -------------------------------------------------------------------
      1       11          -0.003296897   -0.008951352    0.001667870
      2       11          -0.000155888   -0.002670908    0.000491344
      3       11           0.005785782    0.000858866   -0.003488516
      4       11          -0.003006810    0.009330886    0.002687681
      5       11           0.000794910    0.002901812    0.000184955
      6       11           0.000108475    0.000890019    0.000391656
      7       11          -0.000229571   -0.002359323   -0.001934989
 -------------------------------------------------------------------
 Cartesian Forces:  Max     0.009330886 RMS     0.003587660
 Z-matrix is all fixed cartesians, so copy forces.
 Force constants in Cartesian coordinates: 
                1             2             3             4             5 
      1  0.577041D-01
      2  0.550843D-02  0.850693D-01
      3 -0.563199D-02 -0.106330D-01  0.318918D-01
      4 -0.319192D-02 -0.298827D-02  0.351150D-02  0.257380D-01
      5  0.331265D-02  0.335260D-02 -0.250851D-02  0.688204D-02  0.226265D-01
      6 -0.575912D-03 -0.294960D-03  0.173739D-02 -0.688176D-02 -0.593210D-02
      7 -0.252447D-01  0.805956D-03  0.786540D-02  0.850762D-05 -0.484028D-05
      8 -0.216227D-01 -0.295619D-01  0.115655D-01 -0.215837D-04  0.407659D-04
      9  0.103498D-01  0.394055D-02 -0.775128D-02  0.794969D-04 -0.312989D-04
     10  0.399360D-02  0.151645D-02 -0.519545D-03  0.919932D-04 -0.152369D-02
     11  0.498972D-03 -0.195047D-01 -0.687694D-02 -0.102401D-02  0.506634D-03
     12 -0.107842D-02  0.444291D-02 -0.129120D-02  0.278506D-02  0.323608D-02
     13  0.457511D-02  0.521564D-02 -0.818693D-03  0.370347D-02 -0.365905D-02
     14  0.380823D-02  0.463828D-02  0.660472D-03  0.278025D-02 -0.255546D-02
     15 -0.709735D-03  0.106331D-02  0.859019D-02 -0.248194D-02  0.365957D-02
     16 -0.375999D-01 -0.850549D-02  0.135171D-02 -0.286374D-01 -0.693909D-02
     17  0.728646D-02 -0.463864D-01  0.341797D-02 -0.639772D-02 -0.269868D-01
     18 -0.192737D-02  0.214127D-02 -0.324665D-01  0.367369D-02  0.306946D-02
     19 -0.236289D-03 -0.155272D-02 -0.575838D-02  0.228741D-02  0.193198D-02
     20  0.120795D-02  0.239272D-02  0.437455D-02  0.769301D-03  0.301573D-02
     21 -0.426343D-03 -0.660070D-03 -0.710352D-03 -0.686051D-03 -0.149320D-02
                6             7             8             9            10 
      6  0.232033D-01
      7  0.541175D-05  0.600719D-01
      8  0.139539D-04  0.178600D-02  0.486133D-01
      9  0.641055D-04 -0.211768D-01  0.133900D-02  0.140991D-01
     10 -0.137137D-02 -0.268992D-01  0.203006D-01  0.133487D-01  0.561284D-01
     11 -0.725203D-03 -0.171877D-02 -0.257879D-01 -0.544617D-02 -0.375435D-02
     12  0.645635D-02  0.878241D-02 -0.134718D-01 -0.955768D-02 -0.763785D-02
     13  0.847517D-03  0.467126D-05  0.332438D-04  0.657002D-04 -0.366257D-02
     14  0.822295D-03  0.000000D+00  0.286730D-05  0.000000D+00 -0.336757D-02
     15  0.605398D-03 -0.264661D-04 -0.161589D-03 -0.359153D-03 -0.144316D-02
     16  0.337883D-02 -0.793176D-02 -0.484968D-03 -0.257212D-02 -0.319773D-01
     17  0.227056D-02 -0.871138D-03  0.673347D-02  0.186806D-03 -0.137313D-01
     18 -0.297997D-01  0.454961D-02  0.700911D-03  0.349332D-02 -0.176523D-02
     19  0.459728D-02 -0.938816D-05  0.939495D-05 -0.947774D-04  0.232511D-02
     20  0.384546D-02  0.298948D-05 -0.406585D-04  0.117612D-04  0.559861D-03
     21 -0.226685D-02  0.000000D+00  0.141051D-04  0.115733D-04 -0.611575D-03
               11            12            13            14            15 
     11  0.775790D-01
     12  0.170310D-01  0.339452D-01
     13  0.412747D-02 -0.950650D-03  0.287407D-01
     14  0.374126D-02 -0.712800D-03 -0.678798D-02  0.310367D-01
     15  0.128732D-02  0.642562D-03  0.206795D-02 -0.120062D-02  0.182956D-01
     16  0.249792D-02  0.347534D-02 -0.349974D-01  0.147272D-02 -0.177391D-02
     17 -0.374690D-01 -0.597369D-02  0.158298D-02 -0.355280D-01  0.100638D-02
     18 -0.501568D-02 -0.328672D-01 -0.113149D-02  0.271625D-03 -0.292157D-01
     19 -0.627224D-03 -0.537588D-02  0.163606D-02  0.209454D-02  0.436727D-02
     20  0.934643D-03 -0.455164D-02 -0.512309D-03 -0.133560D-02 -0.565436D-02
     21 -0.254316D-03  0.267197D-02 -0.803310D-04  0.159672D-03  0.144117D-02
               16            17            18            19            20 
     16  0.165274D+00
     17  0.150494D-01  0.163716D+00
     18 -0.285319D-02  0.361310D-02  0.155987D+00
     19 -0.241305D-01 -0.291868D-02 -0.546020D-03  0.181276D-01
     20 -0.309050D-02 -0.240788D-01 -0.478069D-02  0.106271D-02  0.191120D-01
     21 -0.100666D-02 -0.452112D-02 -0.351311D-01  0.281051D-02  0.675494D-02
               21 
     21  0.339836D-01
 Leave Link  716 at Mon Nov 13 18:31:21 2023, MaxMem=  1879048192 cpu:               0.5 elap:               0.0
 (Enter /home/sekinelabo/g16/l103.exe)

 GradGradGradGradGradGradGradGradGradGradGradGradGradGradGradGradGradGrad
 Berny optimization.
 Search for a local minimum.
 Step number   1 out of a maximum of    2
 All quantities printed in internal units (Hartrees-Bohrs-Radians)
 Second derivative matrix not updated -- first step.
 ITU=  0
     Eigenvalues ---    0.00802   0.02136   0.02514   0.02683   0.02822
     Eigenvalues ---    0.03144   0.03506   0.03666   0.04734   0.09813
     Eigenvalues ---    0.10367   0.10470   0.18252   0.19545   0.22279
 Angle between quadratic step and forces=  30.77 degrees.
 Linear search not attempted -- first point.
 B after Tr=     0.000000    0.000000    0.000000
         Rot=    1.000000    0.000000   -0.000000   -0.000000 Ang=   0.00 deg.
 Variable       Old X    -DE/DX   Delta X   Delta X   Delta X     New X
                                 (Linear)    (Quad)   (Total)
    X1        7.97018  -0.00330   0.00000  -0.01931  -0.01931   7.95087
    Y1        0.00000  -0.00895   0.00000  -0.07292  -0.07292  -0.07292
    Z1        6.02998   0.00167   0.00000   0.02541   0.02541   6.05539
    X2        0.00000  -0.00016   0.00000  -0.02839  -0.02839  -0.02839
    Y2        0.63270  -0.00267   0.00000  -0.07999  -0.07999   0.55271
    Z2        8.31818   0.00049   0.00000   0.00408   0.00408   8.32227
    X3       11.64552   0.00579   0.00000   0.05968   0.05968  11.70520
    Y3        4.00687   0.00086   0.00000   0.02369   0.02369   4.03055
    Z3        4.47219  -0.00349   0.00000  -0.04522  -0.04522   4.42697
    X4        7.66690  -0.00301   0.00000  -0.00954  -0.00954   7.65736
    Y4        7.47282   0.00933   0.00000   0.09996   0.09996   7.57278
    Z4        6.50288   0.00269   0.00000   0.03498   0.03498   6.53786
    X5        0.01353   0.00079   0.00000   0.02550   0.02550   0.03903
    Y5        7.91470   0.00290   0.00000   0.09851   0.09851   8.01321
    Z5        4.54694   0.00018   0.00000   0.00707   0.00707   4.55401
    X6        3.67790   0.00011   0.00000  -0.01672  -0.01672   3.66118
    Y6        3.63878   0.00089   0.00000   0.00387   0.00387   3.64265
    Z6        5.22493   0.00039   0.00000   0.01138   0.01138   5.23632
    X7        2.78947  -0.00023   0.00000  -0.01122  -0.01122   2.77825
    Y7        1.62087  -0.00236   0.00000  -0.07312  -0.07312   1.54775
    Z7        0.00000  -0.00193   0.00000  -0.03771  -0.03771  -0.03771
         Item               Value     Threshold  Converged?
 Maximum Force            0.009331     0.000450     NO 
 RMS     Force            0.003588     0.000300     NO 
 Maximum Displacement     0.099959     0.001800     NO 
 RMS     Displacement     0.048182     0.001200     NO 
 Predicted change in Energy=-1.559586D-03
 GradGradGradGradGradGradGradGradGradGradGradGradGradGradGradGradGradGrad

 Leave Link  103 at Mon Nov 13 18:31:21 2023, MaxMem=  1879048192 cpu:               0.3 elap:               0.0
 (Enter /home/sekinelabo/g16/l9999.exe)
 1\1\GINC-SEKINELABO-XA7R-R37\Force\UB3LYP\6-311+G(d)\Na7(2)\SEKINELABO
 \13-Nov-2023\0\\#P B3LYP/6-311+g(d) force\\Gaussian input prepared by 
 ASE\\0,2\Na,4.2176374588,0.,3.1909296497\Na,0.,0.3348078636,4.40179370
 6\Na,6.1625436961,2.1203425328,2.366581272\Na,4.0571497913,3.954446836
 8,3.4411753572\Na,0.0071613768,4.1882806554,2.4061359446\Na,1.94626091
 31,1.9255588259,2.7649162238\Na,1.4761258242,0.8577269826,0.\\Version=
 ES64L-G16RevB.01\State=2-A\HF=-1136.1044686\S2=0.773215\S2-1=0.\S2A=0.
 750129\RMSD=9.634e-09\RMSF=3.588e-03\Dipole=0.0777607,-0.0791854,-0.14
 08872\Quadrupole=9.1609618,-5.9163631,-3.2445987,-0.7660903,-1.364767,
 -0.7798486\PG=C01 [X(Na7)]\\@


 CHARLIE BROWN -- WHICH DO YOU THINK LASTS LONGER IN LIFE, THE GOOD THINGS 
                  OR THE BAD THINGS?
 LINUS --         GOOD THINGS LAST EIGHT SECONDS ..
                  BAD THINGS LAST THREE WEEKS
 CHARLIE BROWN -- WHAT ABOUT IN BETWEEN?
 SNOOPY --        IN BETWEEN YOU SHOULD TAKE A NAP ...
 Job cpu time:       0 days  0 hours  4 minutes 35.3 seconds.
 Elapsed time:       0 days  0 hours  0 minutes 22.6 seconds.
 File lengths (MBytes):  RWF=     32 Int=      0 D2E=      0 Chk=      5 Scr=      1
 Normal termination of Gaussian 16 at Mon Nov 13 18:31:21 2023.
