 Entering Gaussian System, Link 0=g16
 Initial command:
 /home/sekinelabo/g16/l1.exe "/home/sekinelabo/g16temp/Gau-1046130.inp" -scrdir="/home/sekinelabo/g16temp/"
 Entering Link 1 = /home/sekinelabo/g16/l1.exe PID=   1046140.
  
 Copyright (c) 1988-2017, Gaussian, Inc.  All Rights Reserved.
  
 This is part of the Gaussian(R) 16 program.  It is based on
 the Gaussian(R) 09 system (copyright 2009, Gaussian, Inc.),
 the Gaussian(R) 03 system (copyright 2003, Gaussian, Inc.),
 the Gaussian(R) 98 system (copyright 1998, Gaussian, Inc.),
 the Gaussian(R) 94 system (copyright 1995, Gaussian, Inc.),
 the Gaussian 92(TM) system (copyright 1992, Gaussian, Inc.),
 the Gaussian 90(TM) system (copyright 1990, Gaussian, Inc.),
 the Gaussian 88(TM) system (copyright 1988, Gaussian, Inc.),
 the Gaussian 86(TM) system (copyright 1986, Carnegie Mellon
 University), and the Gaussian 82(TM) system (copyright 1983,
 Carnegie Mellon University). Gaussian is a federally registered
 trademark of Gaussian, Inc.
  
 This software contains proprietary and confidential information,
 including trade secrets, belonging to Gaussian, Inc.
  
 This software is provided under written license and may be
 used, copied, transmitted, or stored only in accord with that
 written license.
  
 The following legend is applicable only to US Government
 contracts under FAR:
  
                    RESTRICTED RIGHTS LEGEND
  
 Use, reproduction and disclosure by the US Government is
 subject to restrictions as set forth in subparagraphs (a)
 and (c) of the Commercial Computer Software - Restricted
 Rights clause in FAR 52.227-19.
  
 Gaussian, Inc.
 340 Quinnipiac St., Bldg. 40, Wallingford CT 06492
  
  
 ---------------------------------------------------------------
 Warning -- This program may not be used in any manner that
 competes with the business of Gaussian, Inc. or will provide
 assistance to any competitor of Gaussian, Inc.  The licensee
 of this program is prohibited from giving any competitor of
 Gaussian, Inc. access to this program.  By using this program,
 the user acknowledges that Gaussian, Inc. is engaged in the
 business of creating and licensing software in the field of
 computational chemistry and represents and warrants to the
 licensee that it is not a competitor of Gaussian, Inc. and that
 it will not use this program in any manner prohibited above.
 ---------------------------------------------------------------
  

 Cite this work as:
 Gaussian 16, Revision B.01,
 M. J. Frisch, G. W. Trucks, H. B. Schlegel, G. E. Scuseria, 
 M. A. Robb, J. R. Cheeseman, G. Scalmani, V. Barone, 
 G. A. Petersson, H. Nakatsuji, X. Li, M. Caricato, A. V. Marenich, 
 J. Bloino, B. G. Janesko, R. Gomperts, B. Mennucci, H. P. Hratchian, 
 J. V. Ortiz, A. F. Izmaylov, J. L. Sonnenberg, D. Williams-Young, 
 F. Ding, F. Lipparini, F. Egidi, J. Goings, B. Peng, A. Petrone, 
 T. Henderson, D. Ranasinghe, V. G. Zakrzewski, J. Gao, N. Rega, 
 G. Zheng, W. Liang, M. Hada, M. Ehara, K. Toyota, R. Fukuda, 
 J. Hasegawa, M. Ishida, T. Nakajima, Y. Honda, O. Kitao, H. Nakai, 
 T. Vreven, K. Throssell, J. A. Montgomery, Jr., J. E. Peralta, 
 F. Ogliaro, M. J. Bearpark, J. J. Heyd, E. N. Brothers, K. N. Kudin, 
 V. N. Staroverov, T. A. Keith, R. Kobayashi, J. Normand, 
 K. Raghavachari, A. P. Rendell, J. C. Burant, S. S. Iyengar, 
 J. Tomasi, M. Cossi, J. M. Millam, M. Klene, C. Adamo, R. Cammi, 
 J. W. Ochterski, R. L. Martin, K. Morokuma, O. Farkas, 
 J. B. Foresman, and D. J. Fox, Gaussian, Inc., Wallingford CT, 2016.
 
 ******************************************
 Gaussian 16:  ES64L-G16RevB.01 20-Dec-2017
                23-Nov-2023 
 ******************************************
 %nprocshared=14
 Will use up to   14 processors via shared memory.
 -------------------------
 #P B3LYP/6-311+g(d) force
 -------------------------
 1/10=7,30=1,38=1/1,3;
 2/12=2,17=6,18=5,40=1/2;
 3/5=4,6=6,7=11,11=2,25=1,30=1,71=1,74=-5/1,2,3;
 4//1;
 5/5=2,38=5/2;
 6/7=2,8=2,9=2,10=2,28=1/1;
 7/29=1/1,2,3,16;
 1/10=7,30=1/3;
 99//99;
 Leave Link    1 at Thu Nov 23 12:30:20 2023, MaxMem=           0 cpu:               0.5 elap:               0.2
 (Enter /home/sekinelabo/g16/l101.exe)
 -----
 DPGEN
 -----
 Symbolic Z-matrix:
 Charge =  0 Multiplicity = 2
 Na                    14.9132   98.487    1.67235 
 Na                    12.599    0.30718   1.60647 
 Na                    9.0149    3.17923   1.75935 
 Na                    6.35029   4.57082   1.35512 
 Na                    2.5065    6.02414   0.34514 
 Na                    99.8543   3.74163   0.09448 
 Na                    99.0707   1.842     2.13478 
 
 ITRead=  0  0  0  0  0  0  0
 MicOpt= -1 -1 -1 -1 -1 -1 -1
 NAtoms=      7 NQM=        7 NQMF=       0 NMMI=      0 NMMIF=      0
                NMic=       0 NMicF=      0.
                    Isotopes and Nuclear Properties:
 (Nuclear quadrupole moments (NQMom) in fm**2, nuclear magnetic moments (NMagM)
  in nuclear magnetons)

  Atom         1           2           3           4           5           6           7
 IAtWgt=          23          23          23          23          23          23          23
 AtmWgt=  22.9897697  22.9897697  22.9897697  22.9897697  22.9897697  22.9897697  22.9897697
 NucSpn=           3           3           3           3           3           3           3
 AtZEff=  -0.0000000  -0.0000000  -0.0000000  -0.0000000  -0.0000000  -0.0000000  -0.0000000
 NQMom=   10.4000000  10.4000000  10.4000000  10.4000000  10.4000000  10.4000000  10.4000000
 NMagM=    2.2175200   2.2175200   2.2175200   2.2175200   2.2175200   2.2175200   2.2175200
 AtZNuc=  11.0000000  11.0000000  11.0000000  11.0000000  11.0000000  11.0000000  11.0000000
 Leave Link  101 at Thu Nov 23 12:30:22 2023, MaxMem=   104857600 cpu:               2.5 elap:               2.8
 (Enter /home/sekinelabo/g16/l103.exe)

 GradGradGradGradGradGradGradGradGradGradGradGradGradGradGradGradGradGrad
 Berny optimization.
 Initialization pass.
 Trust Radius=3.00D-01 FncErr=1.00D-07 GrdErr=1.00D-07 EigMax=2.50D+02 EigMin=1.00D-04
 Number of steps in this run=      2 maximum allowed number of steps=      2.
 GradGradGradGradGradGradGradGradGradGradGradGradGradGradGradGradGradGrad

 Leave Link  103 at Thu Nov 23 12:30:23 2023, MaxMem=   104857600 cpu:               0.5 elap:               0.6
 (Enter /home/sekinelabo/g16/l202.exe)
                          Input orientation:                          
 ---------------------------------------------------------------------
 Center     Atomic      Atomic             Coordinates (Angstroms)
 Number     Number       Type             X           Y           Z
 ---------------------------------------------------------------------
      1         11           0       14.913200   98.487000    1.672350
      2         11           0       12.599000    0.307181    1.606470
      3         11           0        9.014900    3.179230    1.759350
      4         11           0        6.350290    4.570820    1.355120
      5         11           0        2.506500    6.024140    0.345138
      6         11           0       99.854300    3.741630    0.094481
      7         11           0       99.070700    1.842000    2.134780
 ---------------------------------------------------------------------
                    Distance matrix (angstroms):
                    1          2          3          4          5
     1  Na   0.000000
     2  Na  98.207111   0.000000
     3  Na  95.490149   4.595412   0.000000
     4  Na  94.306272   7.568895   3.033162   0.000000
     5  Na  93.300955  11.667611   7.242429   4.231657   0.000000
     6  Na 127.256298  87.335954  90.856396  93.516184  97.374878
     7  Na 128.152076  86.486934  90.066510  92.763833  96.671288
                    6          7
     6  Na   0.000000
     7  Na   2.895763   0.000000
 Stoichiometry    Na7(2)
 Framework group  C1[X(Na7)]
 Deg. of freedom    15
 Full point group                 C1      NOp   1
 Largest Abelian subgroup         C1      NOp   1
 Largest concise Abelian subgroup C1      NOp   1
                         Standard orientation:                         
 ---------------------------------------------------------------------
 Center     Atomic      Atomic             Coordinates (Angstroms)
 Number     Number       Type             X           Y           Z
 ---------------------------------------------------------------------
      1         11           0       49.977475   67.541200   -0.057446
      2         11           0       14.164872  -23.902779   -0.362105
      3         11           0       18.580878  -22.638767   -0.499843
      4         11           0       21.575227  -22.386462   -0.087187
      5         11           0       25.679427  -22.534837    0.932839
      6         11           0      -64.985791   12.985140    1.060162
      7         11           0      -64.992087   10.936505   -0.986420
 ---------------------------------------------------------------------
 Rotational constants (GHZ):           0.0031647           0.0017420           0.0011239
 Leave Link  202 at Thu Nov 23 12:30:24 2023, MaxMem=   104857600 cpu:               0.8 elap:               0.9
 (Enter /home/sekinelabo/g16/l301.exe)
 Standard basis: 6-311+G(d) (5D, 7F)
 Ernie: Thresh=  0.10000D-02 Tol=  0.10000D-05 Strict=F.
 There are   217 symmetry adapted cartesian basis functions of A   symmetry.
 There are   210 symmetry adapted basis functions of A   symmetry.
   210 basis functions,   350 primitive gaussians,   217 cartesian basis functions
    39 alpha electrons       38 beta electrons
       nuclear repulsion energy       104.3499512283 Hartrees.
 IExCor=  402 DFT=T Ex+Corr=B3LYP ExCW=0 ScaHFX=  0.200000
 ScaDFX=  0.800000  0.720000  1.000000  0.810000 ScalE2=  1.000000  1.000000
 IRadAn=      5 IRanWt=     -1 IRanGd=            0 ICorTp=0 IEmpDi=  4
 NAtoms=    7 NActive=    7 NUniq=    7 SFac= 1.00D+00 NAtFMM=   60 NAOKFM=F Big=F
 Integral buffers will be    131072 words long.
 Raffenetti 2 integral format.
 Two-electron integral symmetry is turned on.
 Leave Link  301 at Thu Nov 23 12:30:25 2023, MaxMem=   104857600 cpu:               0.7 elap:               0.9
 (Enter /home/sekinelabo/g16/l302.exe)
 NPDir=0 NMtPBC=     1 NCelOv=     1 NCel=       1 NClECP=     1 NCelD=      1
         NCelK=      1 NCelE2=     1 NClLst=     1 CellRange=     0.0.
 One-electron integrals computed using PRISM.
 One-electron integral symmetry used in STVInt
 GSVD:  received Info=                   1 from GESDD.
 NBasis=   210 RedAO= T EigKep=  5.38D-05  NBF=   210
 NBsUse=   209 1.00D-06 EigRej=  4.88D-07 NBFU=   209
 Precomputing XC quadrature grid using
 IXCGrd= 4 IRadAn=           5 IRanWt=          -1 IRanGd=           0 AccXCQ= 0.00D+00.
 Generated NRdTot=       0 NPtTot=           0 NUsed=           0 NTot=          32
 NSgBfM=   111   111   111   111   111 MxSgAt=     7 MxSgA2=     4.
 Leave Link  302 at Thu Nov 23 12:30:53 2023, MaxMem=   104857600 cpu:              22.2 elap:              27.7
 (Enter /home/sekinelabo/g16/l303.exe)
 DipDrv:  MaxL=1.
 Leave Link  303 at Thu Nov 23 12:30:56 2023, MaxMem=   104857600 cpu:               2.1 elap:               3.0
 (Enter /home/sekinelabo/g16/l401.exe)
 ExpMin= 7.60D-03 ExpMax= 3.62D+04 ExpMxC= 1.21D+03 IAcc=3 IRadAn=         5 AccDes= 0.00D+00
 Harris functional with IExCor=  402 and IRadAn=       5 diagonalized for initial guess.
 HarFok:  IExCor=  402 AccDes= 0.00D+00 IRadAn=         5 IDoV= 1 UseB2=F ITyADJ=14
 ICtDFT=  3500011 ScaDFX=  1.000000  1.000000  1.000000  1.000000
 FoFCou: FMM=F IPFlag=           0 FMFlag=      100000 FMFlg1=           0
         NFxFlg=           0 DoJE=T BraDBF=F KetDBF=T FulRan=T
         wScrn=  0.000000 ICntrl=       500 IOpCl=  0 I1Cent=   200000004 NGrid=           0
         NMat0=    1 NMatS0=      1 NMatT0=    0 NMatD0=    1 NMtDS0=    0 NMtDT0=    0
 Petite list used in FoFCou.
 Harris En= -1135.83718781867    
 JPrj=0 DoOrth=F DoCkMO=F.
 Initial guess <Sx>= 0.0000 <Sy>= 0.0000 <Sz>= 0.5000 <S**2>= 0.7500 S= 0.5000
 Leave Link  401 at Thu Nov 23 12:31:16 2023, MaxMem=   104857600 cpu:              16.2 elap:              20.2
 (Enter /home/sekinelabo/g16/l502.exe)
 Integral symmetry usage will be decided dynamically.
 UHF open shell SCF:
 Using DIIS extrapolation, IDIIS=  1040.
 NGot=   104857600 LenX=   104758440 LenY=   104710910
 Requested convergence on RMS density matrix=1.00D-08 within 128 cycles.
 Requested convergence on MAX density matrix=1.00D-06.
 Requested convergence on             energy=1.00D-06.
 No special actions if energy rises.
 Fock matrices will be formed incrementally for  20 cycles.

 Cycle   1  Pass 1  IDiag  1:
 FoFJK:  IHMeth= 1 ICntrl=       0 DoSepK=F KAlg= 0 I1Cent=           0 FoldK=F
 IRaf= 390000000 NMat=       1 IRICut=       1 DoRegI=T DoRafI=F ISym2E= 0 IDoP0=0 IntGTp=1.
 FoFCou: FMM=F IPFlag=           0 FMFlag=      100000 FMFlg1=           0
         NFxFlg=           0 DoJE=F BraDBF=F KetDBF=F FulRan=T
         wScrn=  0.000000 ICntrl=         0 IOpCl=  1 I1Cent=           0 NGrid=           0
         NMat0=    1 NMatS0=      1 NMatT0=    0 NMatD0=    1 NMtDS0=    0 NMtDT0=    0
 Symmetry not used in FoFCou.
 E= -1136.03536485808    
 DIIS: error= 2.00D-02 at cycle   1 NSaved=   1.
 NSaved= 1 IEnMin= 1 EnMin= -1136.03536485808     IErMin= 1 ErrMin= 2.00D-02
 ErrMax= 2.00D-02  0.00D+00 EMaxC= 1.00D-01 BMatC= 1.86D-01 BMatP= 1.86D-01
 IDIUse=3 WtCom= 8.00D-01 WtEn= 2.00D-01
 Coeff-Com:  0.100D+01
 Coeff-En:   0.100D+01
 Coeff:      0.100D+01
 Gap=     0.036 Goal=   None    Shift=    0.000
 Gap=     0.045 Goal=   None    Shift=    0.000
 GapD=    0.036 DampG=0.250 DampE=0.500 DampFc=0.2500 IDamp=-1.
 Damping current iteration by 2.50D-01
 RMSDP=3.32D-03 MaxDP=3.41D-01              OVMax= 5.13D-01

 Cycle   2  Pass 1  IDiag  1:
 RMSU=  8.31D-04    CP:  9.99D-01
 E= -1136.04464118633     Delta-E=       -0.009276328255 Rises=F Damp=T
 DIIS: error= 1.39D-02 at cycle   2 NSaved=   2.
 NSaved= 2 IEnMin= 2 EnMin= -1136.04464118633     IErMin= 2 ErrMin= 1.39D-02
 ErrMax= 1.39D-02  0.00D+00 EMaxC= 1.00D-01 BMatC= 7.08D-02 BMatP= 1.86D-01
 IDIUse=3 WtCom= 8.61D-01 WtEn= 1.39D-01
 Coeff-Com: -0.119D+01 0.219D+01
 Coeff-En:   0.000D+00 0.100D+01
 Coeff:     -0.103D+01 0.203D+01
 Gap=     0.040 Goal=   None    Shift=    0.000
 Gap=     0.040 Goal=   None    Shift=    0.000
 RMSDP=2.76D-03 MaxDP=2.52D-01 DE=-9.28D-03 OVMax= 7.49D-01

 Cycle   3  Pass 1  IDiag  1:
 RMSU=  2.43D-03    CP:  9.91D-01 -5.68D-01
 E= -1135.98134369367     Delta-E=        0.063297492662 Rises=F Damp=F
 DIIS: error= 1.76D-02 at cycle   3 NSaved=   3.
 NSaved= 3 IEnMin= 2 EnMin= -1136.04464118633     IErMin= 2 ErrMin= 1.39D-02
 ErrMax= 1.76D-02  0.00D+00 EMaxC= 1.00D-01 BMatC= 2.81D-02 BMatP= 7.08D-02
 IDIUse=3 WtCom= 8.24D-01 WtEn= 1.76D-01
 Coeff-Com: -0.671D+00 0.121D+01 0.456D+00
 Coeff-En:   0.000D+00 0.944D+00 0.564D-01
 Coeff:     -0.553D+00 0.117D+01 0.386D+00
 Gap=    -0.005 Goal=   None    Shift=    0.000
 Gap=    -0.005 Goal=   None    Shift=    0.000
 RMSDP=4.68D-03 MaxDP=5.24D-01 DE= 6.33D-02 OVMax= 6.88D-01

 Cycle   4  Pass 1  IDiag  1:
 RMSU=  2.21D-03    CP:  9.88D-01  3.00D+00 -3.16D-02
 E= -1135.95094351589     Delta-E=        0.030400177785 Rises=F Damp=F
 DIIS: error= 1.66D-02 at cycle   4 NSaved=   4.
 NSaved= 4 IEnMin= 2 EnMin= -1136.04464118633     IErMin= 2 ErrMin= 1.39D-02
 ErrMax= 1.66D-02  0.00D+00 EMaxC= 1.00D-01 BMatC= 3.78D-02 BMatP= 2.81D-02
 IDIUse=2 WtCom= 0.00D+00 WtEn= 1.00D+00
 EnCoef did     3 forward-backward iterations
 Coeff-En:   0.000D+00 0.295D+00 0.391D+00 0.314D+00
 Coeff:      0.000D+00 0.295D+00 0.391D+00 0.314D+00
 Gap=     0.014 Goal=   None    Shift=    0.000
 Gap=     0.014 Goal=   None    Shift=    0.000
 RMSDP=3.11D-03 MaxDP=2.63D-01 DE= 3.04D-02 OVMax= 5.05D-01

 Cycle   5  Pass 1  IDiag  1:
 RMSU=  9.17D-04    CP:  9.97D-01  1.93D+00  2.56D-01 -1.92D-01
 E= -1136.05487777440     Delta-E=       -0.103934258515 Rises=F Damp=F
 DIIS: error= 8.04D-03 at cycle   5 NSaved=   5.
 NSaved= 5 IEnMin= 5 EnMin= -1136.05487777440     IErMin= 5 ErrMin= 8.04D-03
 ErrMax= 8.04D-03  0.00D+00 EMaxC= 1.00D-01 BMatC= 7.08D-03 BMatP= 2.81D-02
 IDIUse=3 WtCom= 9.20D-01 WtEn= 8.04D-02
 EnCoef did     4 forward-backward iterations
 Coeff-Com:  0.259D+00-0.314D+00 0.232D+00 0.203D+00 0.620D+00
 Coeff-En:   0.150D+00 0.000D+00 0.195D-02 0.662D-04 0.848D+00
 Coeff:      0.250D+00-0.289D+00 0.214D+00 0.187D+00 0.638D+00
 Gap=     0.020 Goal=   None    Shift=    0.000
 Gap=     0.020 Goal=   None    Shift=    0.000
 RMSDP=1.56D-03 MaxDP=1.37D-01 DE=-1.04D-01 OVMax= 2.11D-01

 Cycle   6  Pass 1  IDiag  1:
 RMSU=  8.00D-04    CP:  9.93D-01  1.24D+00  2.15D-01  3.10D-01  4.72D-01
 E= -1136.05726659552     Delta-E=       -0.002388821122 Rises=F Damp=F
 DIIS: error= 6.09D-03 at cycle   6 NSaved=   6.
 NSaved= 6 IEnMin= 6 EnMin= -1136.05726659552     IErMin= 6 ErrMin= 6.09D-03
 ErrMax= 6.09D-03  0.00D+00 EMaxC= 1.00D-01 BMatC= 3.34D-03 BMatP= 7.08D-03
 IDIUse=3 WtCom= 9.39D-01 WtEn= 6.09D-02
 EnCoef did     2 forward-backward iterations
 Coeff-Com:  0.190D+00-0.255D+00 0.858D-01-0.167D-01 0.450D+00 0.546D+00
 Coeff-En:   0.000D+00 0.000D+00 0.354D-01 0.000D+00 0.404D+00 0.561D+00
 Coeff:      0.179D+00-0.239D+00 0.828D-01-0.157D-01 0.447D+00 0.547D+00
 Gap=     0.024 Goal=   None    Shift=    0.000
 Gap=     0.024 Goal=   None    Shift=    0.000
 RMSDP=5.85D-04 MaxDP=5.65D-02 DE=-2.39D-03 OVMax= 8.94D-02

 Cycle   7  Pass 1  IDiag  1:
 RMSU=  2.40D-04    CP:  9.93D-01  1.39D+00  2.91D-01  1.22D-01  6.63D-01
                    CP:  7.80D-01
 E= -1136.06319790779     Delta-E=       -0.005931312265 Rises=F Damp=F
 DIIS: error= 2.10D-03 at cycle   7 NSaved=   7.
 NSaved= 7 IEnMin= 7 EnMin= -1136.06319790779     IErMin= 7 ErrMin= 2.10D-03
 ErrMax= 2.10D-03  0.00D+00 EMaxC= 1.00D-01 BMatC= 3.01D-04 BMatP= 3.34D-03
 IDIUse=3 WtCom= 9.79D-01 WtEn= 2.10D-02
 Coeff-Com:  0.562D-01-0.778D-01 0.675D-01-0.297D-01 0.101D+00 0.123D+00
 Coeff-Com:  0.761D+00
 Coeff-En:   0.000D+00 0.000D+00 0.000D+00 0.000D+00 0.000D+00 0.000D+00
 Coeff-En:   0.100D+01
 Coeff:      0.550D-01-0.762D-01 0.661D-01-0.290D-01 0.984D-01 0.120D+00
 Coeff:      0.766D+00
 Gap=     0.025 Goal=   None    Shift=    0.000
 Gap=     0.025 Goal=   None    Shift=    0.000
 RMSDP=1.36D-04 MaxDP=7.63D-03 DE=-5.93D-03 OVMax= 1.16D-02

 Cycle   8  Pass 1  IDiag  1:
 RMSU=  6.01D-05    CP:  9.92D-01  1.36D+00  2.98D-01  1.66D-01  6.73D-01
                    CP:  8.51D-01  1.12D+00
 E= -1136.06293963102     Delta-E=        0.000258276767 Rises=F Damp=F
 DIIS: error= 2.67D-03 at cycle   8 NSaved=   8.
 NSaved= 8 IEnMin= 7 EnMin= -1136.06319790779     IErMin= 7 ErrMin= 2.10D-03
 ErrMax= 2.67D-03  0.00D+00 EMaxC= 1.00D-01 BMatC= 4.00D-04 BMatP= 3.01D-04
 IDIUse=3 WtCom= 9.79D-01 WtEn= 2.10D-02
 Rare condition: small coef for last iteration:  0.000D+00
 Coeff-Com:  0.272D-01-0.385D-01 0.682D-01-0.318D-01 0.118D-01-0.892D-01
 Coeff-Com:  0.167D+00 0.885D+00
 Coeff-En:   0.000D+00 0.000D+00 0.000D+00 0.000D+00 0.000D+00 0.000D+00
 Coeff-En:   0.000D+00 0.100D+01
 Coeff:      0.272D-01-0.385D-01 0.682D-01-0.318D-01 0.118D-01-0.892D-01
 Coeff:      0.167D+00 0.885D+00
 Gap=     0.025 Goal=   None    Shift=    0.000
 Gap=     0.025 Goal=   None    Shift=    0.000
 RMSDP=6.07D-05 MaxDP=5.76D-03 DE= 2.58D-04 OVMax= 9.74D-03

 Cycle   9  Pass 1  IDiag  1:
 RMSU=  1.70D-05    CP:  9.92D-01  1.37D+00  2.93D-01  1.85D-01  6.54D-01
                    CP:  8.89D-01  1.15D+00  1.11D+00
 E= -1136.06257747572     Delta-E=        0.000362155298 Rises=F Damp=F
 DIIS: error= 3.20D-03 at cycle   9 NSaved=   9.
 NSaved= 9 IEnMin= 7 EnMin= -1136.06319790779     IErMin= 7 ErrMin= 2.10D-03
 ErrMax= 3.20D-03  0.00D+00 EMaxC= 1.00D-01 BMatC= 5.66D-04 BMatP= 3.01D-04
 IDIUse=3 WtCom= 9.79D-01 WtEn= 2.10D-02
 Rare condition: small coef for last iteration:  0.000D+00
 Coeff-Com:  0.398D-02-0.634D-02 0.196D-01-0.876D-02 0.150D-02 0.298D+00
 Coeff-Com:  0.136D+01 0.359D+01-0.425D+01
 Coeff-En:   0.000D+00 0.000D+00 0.145D-01 0.000D+00 0.000D+00 0.000D+00
 Coeff-En:   0.000D+00 0.000D+00 0.985D+00
 Coeff:      0.398D-02-0.634D-02 0.196D-01-0.876D-02 0.150D-02 0.298D+00
 Coeff:      0.136D+01 0.359D+01-0.425D+01
 Gap=     0.025 Goal=   None    Shift=    0.000
 Gap=     0.025 Goal=   None    Shift=    0.000
 RMSDP=2.12D-04 MaxDP=2.03D-02 DE= 3.62D-04 OVMax= 4.21D-02

 Cycle  10  Pass 1  IDiag  1:
 RMSU=  4.29D-05    CP:  9.92D-01  1.24D+00  3.34D-01  1.29D-01  6.98D-01
                    CP:  8.16D-01  1.10D+00  1.08D+00 -3.63D-01
 E= -1136.06370487413     Delta-E=       -0.001127398404 Rises=F Damp=F
 DIIS: error= 8.39D-04 at cycle  10 NSaved=  10.
 NSaved=10 IEnMin=10 EnMin= -1136.06370487413     IErMin=10 ErrMin= 8.39D-04
 ErrMax= 8.39D-04  0.00D+00 EMaxC= 1.00D-01 BMatC= 4.52D-05 BMatP= 3.01D-04
 IDIUse=3 WtCom= 9.92D-01 WtEn= 8.39D-03
 Coeff-Com: -0.800D-02 0.104D-01 0.520D-02-0.197D-02-0.294D-01 0.564D-01
 Coeff-Com:  0.275D+00 0.955D+00-0.135D+01 0.109D+01
 Coeff-En:   0.000D+00 0.000D+00 0.000D+00 0.000D+00 0.000D+00 0.000D+00
 Coeff-En:   0.000D+00 0.000D+00 0.000D+00 0.100D+01
 Coeff:     -0.794D-02 0.103D-01 0.515D-02-0.195D-02-0.292D-01 0.559D-01
 Coeff:      0.272D+00 0.947D+00-0.134D+01 0.109D+01
 Gap=     0.025 Goal=   None    Shift=    0.000
 Gap=     0.025 Goal=   None    Shift=    0.000
 RMSDP=5.71D-05 MaxDP=5.05D-03 DE=-1.13D-03 OVMax= 8.40D-03

 Cycle  11  Pass 1  IDiag  1:
 RMSU=  1.48D-05    CP:  9.92D-01  1.20D+00  3.48D-01  1.24D-01  6.99D-01
                    CP:  8.24D-01  1.20D+00  1.14D+00 -9.71D-01  9.28D-01
 E= -1136.06377405632     Delta-E=       -0.000069182189 Rises=F Damp=F
 DIIS: error= 3.85D-04 at cycle  11 NSaved=  11.
 NSaved=11 IEnMin=11 EnMin= -1136.06377405632     IErMin=11 ErrMin= 3.85D-04
 ErrMax= 3.85D-04  0.00D+00 EMaxC= 1.00D-01 BMatC= 8.53D-06 BMatP= 4.52D-05
 IDIUse=3 WtCom= 9.96D-01 WtEn= 3.85D-03
 Coeff-Com: -0.490D-02 0.653D-02 0.425D-03 0.113D-03-0.167D-01-0.373D-02
 Coeff-Com: -0.447D-01 0.402D-02-0.189D+00 0.451D+00 0.797D+00
 Coeff-En:   0.000D+00 0.000D+00 0.000D+00 0.000D+00 0.000D+00 0.000D+00
 Coeff-En:   0.000D+00 0.000D+00 0.000D+00 0.000D+00 0.100D+01
 Coeff:     -0.488D-02 0.650D-02 0.423D-03 0.113D-03-0.166D-01-0.371D-02
 Coeff:     -0.445D-01 0.400D-02-0.188D+00 0.450D+00 0.798D+00
 Gap=     0.025 Goal=   None    Shift=    0.000
 Gap=     0.025 Goal=   None    Shift=    0.000
 RMSDP=3.81D-05 MaxDP=4.07D-03 DE=-6.92D-05 OVMax= 7.26D-03

 Cycle  12  Pass 1  IDiag  1:
 RMSU=  5.58D-06    CP:  9.92D-01  1.17D+00  3.57D-01  1.19D-01  6.95D-01
                    CP:  8.27D-01  1.22D+00  1.11D+00 -8.59D-01  9.81D-01
                    CP:  1.20D+00
 E= -1136.06379279692     Delta-E=       -0.000018740603 Rises=F Damp=F
 DIIS: error= 1.40D-05 at cycle  12 NSaved=  12.
 NSaved=12 IEnMin=12 EnMin= -1136.06379279692     IErMin=12 ErrMin= 1.40D-05
 ErrMax= 1.40D-05  0.00D+00 EMaxC= 1.00D-01 BMatC= 1.81D-08 BMatP= 8.53D-06
 IDIUse=1 WtCom= 1.00D+00 WtEn= 0.00D+00
 Coeff-Com:  0.218D-04-0.357D-04 0.769D-04-0.418D-03-0.178D-04 0.269D-03
 Coeff-Com: -0.316D-02-0.283D-01 0.244D-01-0.114D-01 0.873D-01 0.931D+00
 Coeff:      0.218D-04-0.357D-04 0.769D-04-0.418D-03-0.178D-04 0.269D-03
 Coeff:     -0.316D-02-0.283D-01 0.244D-01-0.114D-01 0.873D-01 0.931D+00
 Gap=     0.025 Goal=   None    Shift=    0.000
 Gap=     0.025 Goal=   None    Shift=    0.000
 RMSDP=6.30D-06 MaxDP=5.13D-04 DE=-1.87D-05 OVMax= 1.01D-03

 Cycle  13  Pass 1  IDiag  1:
 RMSU=  1.28D-06    CP:  9.92D-01  1.17D+00  3.56D-01  1.19D-01  6.92D-01
                    CP:  8.29D-01  1.22D+00  1.09D+00 -7.39D-01  9.48D-01
                    CP:  1.24D+00  1.17D+00
 E= -1136.06379265736     Delta-E=        0.000000139557 Rises=F Damp=F
 DIIS: error= 3.79D-05 at cycle  13 NSaved=  13.
 NSaved=13 IEnMin=12 EnMin= -1136.06379279692     IErMin=12 ErrMin= 1.40D-05
 ErrMax= 3.79D-05  0.00D+00 EMaxC= 1.00D-01 BMatC= 8.09D-08 BMatP= 1.81D-08
 IDIUse=1 WtCom= 1.00D+00 WtEn= 0.00D+00
 Coeff-Com: -0.467D-04 0.577D-04-0.138D-03-0.108D-04 0.643D-04 0.321D-03
 Coeff-Com:  0.819D-03-0.163D-01 0.103D-01-0.228D-01 0.124D-01 0.373D+00
 Coeff-Com:  0.642D+00
 Coeff:     -0.467D-04 0.577D-04-0.138D-03-0.108D-04 0.643D-04 0.321D-03
 Coeff:      0.819D-03-0.163D-01 0.103D-01-0.228D-01 0.124D-01 0.373D+00
 Coeff:      0.642D+00
 Gap=     0.025 Goal=   None    Shift=    0.000
 Gap=     0.025 Goal=   None    Shift=    0.000
 RMSDP=4.43D-06 MaxDP=4.29D-04 DE= 1.40D-07 OVMax= 8.32D-04

 Cycle  14  Pass 1  IDiag  1:
 RMSU=  3.41D-07    CP:  9.92D-01  1.17D+00  3.57D-01  1.18D-01  6.93D-01
                    CP:  8.28D-01  1.22D+00  1.08D+00 -8.18D-01  9.30D-01
                    CP:  1.29D+00  1.24D+00  1.00D+00
 E= -1136.06379283292     Delta-E=       -0.000000175551 Rises=F Damp=F
 DIIS: error= 6.42D-06 at cycle  14 NSaved=  14.
 NSaved=14 IEnMin=14 EnMin= -1136.06379283292     IErMin=14 ErrMin= 6.42D-06
 ErrMax= 6.42D-06  0.00D+00 EMaxC= 1.00D-01 BMatC= 2.48D-09 BMatP= 1.81D-08
 IDIUse=1 WtCom= 1.00D+00 WtEn= 0.00D+00
 Coeff-Com: -0.742D-04 0.996D-04-0.756D-05-0.271D-04-0.142D-03-0.150D-03
 Coeff-Com:  0.179D-02 0.493D-02-0.162D-02-0.845D-02-0.140D-01 0.304D-01
 Coeff-Com:  0.188D+00 0.799D+00
 Coeff:     -0.742D-04 0.996D-04-0.756D-05-0.271D-04-0.142D-03-0.150D-03
 Coeff:      0.179D-02 0.493D-02-0.162D-02-0.845D-02-0.140D-01 0.304D-01
 Coeff:      0.188D+00 0.799D+00
 Gap=     0.025 Goal=   None    Shift=    0.000
 Gap=     0.025 Goal=   None    Shift=    0.000
 RMSDP=1.07D-06 MaxDP=7.43D-05 DE=-1.76D-07 OVMax= 1.42D-04

 Cycle  15  Pass 1  IDiag  1:
 RMSU=  1.10D-07    CP:  9.92D-01  1.17D+00  3.57D-01  1.18D-01  6.92D-01
                    CP:  8.28D-01  1.22D+00  1.07D+00 -8.14D-01  9.23D-01
                    CP:  1.30D+00  1.25D+00  1.08D+00  1.28D+00
 E= -1136.06379283799     Delta-E=       -0.000000005071 Rises=F Damp=F
 DIIS: error= 1.17D-06 at cycle  15 NSaved=  15.
 NSaved=15 IEnMin=15 EnMin= -1136.06379283799     IErMin=15 ErrMin= 1.17D-06
 ErrMax= 1.17D-06  0.00D+00 EMaxC= 1.00D-01 BMatC= 8.91D-11 BMatP= 2.48D-09
 IDIUse=1 WtCom= 1.00D+00 WtEn= 0.00D+00
 Coeff-Com: -0.989D-05 0.136D-04 0.193D-05 0.170D-05-0.327D-04 0.526D-04
 Coeff-Com:  0.362D-03 0.479D-03-0.914D-03 0.705D-03-0.405D-03-0.165D-01
 Coeff-Com: -0.292D-01 0.371D-01 0.101D+01
 Coeff:     -0.989D-05 0.136D-04 0.193D-05 0.170D-05-0.327D-04 0.526D-04
 Coeff:      0.362D-03 0.479D-03-0.914D-03 0.705D-03-0.405D-03-0.165D-01
 Coeff:     -0.292D-01 0.371D-01 0.101D+01
 Gap=     0.025 Goal=   None    Shift=    0.000
 Gap=     0.025 Goal=   None    Shift=    0.000
 RMSDP=2.05D-07 MaxDP=1.02D-05 DE=-5.07D-09 OVMax= 2.20D-05

 Cycle  16  Pass 1  IDiag  1:
 RMSU=  2.10D-08    CP:  9.92D-01  1.17D+00  3.57D-01  1.18D-01  6.92D-01
                    CP:  8.28D-01  1.22D+00  1.07D+00 -8.17D-01  9.21D-01
                    CP:  1.31D+00  1.25D+00  1.10D+00  1.42D+00  1.21D+00
 E= -1136.06379283817     Delta-E=       -0.000000000181 Rises=F Damp=F
 DIIS: error= 3.93D-08 at cycle  16 NSaved=  16.
 NSaved=16 IEnMin=16 EnMin= -1136.06379283817     IErMin=16 ErrMin= 3.93D-08
 ErrMax= 3.93D-08  0.00D+00 EMaxC= 1.00D-01 BMatC= 2.43D-13 BMatP= 8.91D-11
 IDIUse=1 WtCom= 1.00D+00 WtEn= 0.00D+00
 Coeff-Com: -0.219D-05 0.300D-05 0.250D-06 0.419D-06-0.731D-05 0.841D-05
 Coeff-Com:  0.194D-04-0.337D-04-0.871D-04 0.232D-03 0.574D-04-0.263D-02
 Coeff-Com: -0.661D-02-0.735D-02 0.174D+00 0.843D+00
 Coeff:     -0.219D-05 0.300D-05 0.250D-06 0.419D-06-0.731D-05 0.841D-05
 Coeff:      0.194D-04-0.337D-04-0.871D-04 0.232D-03 0.574D-04-0.263D-02
 Coeff:     -0.661D-02-0.735D-02 0.174D+00 0.843D+00
 Gap=     0.025 Goal=   None    Shift=    0.000
 Gap=     0.025 Goal=   None    Shift=    0.000
 RMSDP=1.05D-08 MaxDP=5.76D-07 DE=-1.81D-10 OVMax= 1.02D-06

 Cycle  17  Pass 1  IDiag  1:
 RMSU=  3.12D-09    CP:  9.92D-01  1.17D+00  3.57D-01  1.18D-01  6.92D-01
                    CP:  8.28D-01  1.22D+00  1.07D+00 -8.17D-01  9.21D-01
                    CP:  1.31D+00  1.25D+00  1.10D+00  1.43D+00  1.24D+00
                    CP:  1.09D+00
 E= -1136.06379283817     Delta-E=       -0.000000000003 Rises=F Damp=F
 DIIS: error= 1.88D-08 at cycle  17 NSaved=  17.
 NSaved=17 IEnMin=17 EnMin= -1136.06379283817     IErMin=17 ErrMin= 1.88D-08
 ErrMax= 1.88D-08  0.00D+00 EMaxC= 1.00D-01 BMatC= 3.58D-14 BMatP= 2.43D-13
 IDIUse=1 WtCom= 1.00D+00 WtEn= 0.00D+00
 Coeff-Com:  0.968D-07-0.137D-06 0.112D-07 0.978D-07 0.429D-06 0.128D-05
 Coeff-Com: -0.767D-05-0.277D-04-0.178D-05 0.579D-04 0.650D-04 0.257D-03
 Coeff-Com: -0.301D-03-0.677D-02-0.109D-01 0.264D+00 0.754D+00
 Coeff:      0.968D-07-0.137D-06 0.112D-07 0.978D-07 0.429D-06 0.128D-05
 Coeff:     -0.767D-05-0.277D-04-0.178D-05 0.579D-04 0.650D-04 0.257D-03
 Coeff:     -0.301D-03-0.677D-02-0.109D-01 0.264D+00 0.754D+00
 Gap=     0.025 Goal=   None    Shift=    0.000
 Gap=     0.025 Goal=   None    Shift=    0.000
 RMSDP=4.02D-09 MaxDP=2.16D-07 DE=-2.96D-12 OVMax= 3.97D-07

 SCF Done:  E(UB3LYP) =  -1136.06379284     A.U. after   17 cycles
            NFock= 17  Conv=0.40D-08     -V/T= 2.0029
 <Sx>= 0.0000 <Sy>= 0.0000 <Sz>= 0.5000 <S**2>= 0.7500 S= 0.5000
 <L.S>= 0.000000000000E+00
 KE= 1.132788428460D+03 PE=-2.937066418933D+03 EE= 5.638642464059D+02
 Annihilation of the first spin contaminant:
 S**2 before annihilation     0.7500,   after     0.7500
 Leave Link  502 at Thu Nov 23 12:40:23 2023, MaxMem=   104857600 cpu:             441.4 elap:             546.1
 (Enter /home/sekinelabo/g16/l601.exe)
 Copying SCF densities to generalized density rwf, IOpCl= 1 IROHF=0.

 **********************************************************************

            Population analysis using the SCF Density.

 **********************************************************************

 Orbital symmetries:
 Alpha Orbitals:
       Occupied  (A) (A) (A) (A) (A) (A) (A) (A) (A) (A) (A) (A)
                 (A) (A) (A) (A) (A) (A) (A) (A) (A) (A) (A) (A)
                 (A) (A) (A) (A) (A) (A) (A) (A) (A) (A) (A) (A)
                 (A) (A) (A)
       Virtual   (A) (A) (A) (A) (A) (A) (A) (A) (A) (A) (A) (A)
                 (A) (A) (A) (A) (A) (A) (A) (A) (A) (A) (A) (A)
                 (A) (A) (A) (A) (A) (A) (A) (A) (A) (A) (A) (A)
                 (A) (A) (A) (A) (A) (A) (A) (A) (A) (A) (A) (A)
                 (A) (A) (A) (A) (A) (A) (A) (A) (A) (A) (A) (A)
                 (A) (A) (A) (A) (A) (A) (A) (A) (A) (A) (A) (A)
                 (A) (A) (A) (A) (A) (A) (A) (A) (A) (A) (A) (A)
                 (A) (A) (A) (A) (A) (A) (A) (A) (A) (A) (A) (A)
                 (A) (A) (A) (A) (A) (A) (A) (A) (A) (A) (A) (A)
                 (A) (A) (A) (A) (A) (A) (A) (A) (A) (A) (A) (A)
                 (A) (A) (A) (A) (A) (A) (A) (A) (A) (A) (A) (A)
                 (A) (A) (A) (A) (A) (A) (A) (A) (A) (A) (A) (A)
                 (A) (A) (A) (A) (A) (A) (A) (A) (A) (A) (A) (A)
                 (A) (A) (A) (A) (A) (A) (A) (A) (A) (A) (A) (A)
                 (A) (A)
 Beta  Orbitals:
       Occupied  (A) (A) (A) (A) (A) (A) (A) (A) (A) (A) (A) (A)
                 (A) (A) (A) (A) (A) (A) (A) (A) (A) (A) (A) (A)
                 (A) (A) (A) (A) (A) (A) (A) (A) (A) (A) (A) (A)
                 (A) (A)
       Virtual   (A) (A) (A) (A) (A) (A) (A) (A) (A) (A) (A) (A)
                 (A) (A) (A) (A) (A) (A) (A) (A) (A) (A) (A) (A)
                 (A) (A) (A) (A) (A) (A) (A) (A) (A) (A) (A) (A)
                 (A) (A) (A) (A) (A) (A) (A) (A) (A) (A) (A) (A)
                 (A) (A) (A) (A) (A) (A) (A) (A) (A) (A) (A) (A)
                 (A) (A) (A) (A) (A) (A) (A) (A) (A) (A) (A) (A)
                 (A) (A) (A) (A) (A) (A) (A) (A) (A) (A) (A) (A)
                 (A) (A) (A) (A) (A) (A) (A) (A) (A) (A) (A) (A)
                 (A) (A) (A) (A) (A) (A) (A) (A) (A) (A) (A) (A)
                 (A) (A) (A) (A) (A) (A) (A) (A) (A) (A) (A) (A)
                 (A) (A) (A) (A) (A) (A) (A) (A) (A) (A) (A) (A)
                 (A) (A) (A) (A) (A) (A) (A) (A) (A) (A) (A) (A)
                 (A) (A) (A) (A) (A) (A) (A) (A) (A) (A) (A) (A)
                 (A) (A) (A) (A) (A) (A) (A) (A) (A) (A) (A) (A)
                 (A) (A) (A)
 The electronic state is 2-A.
 Alpha  occ. eigenvalues --  -38.46374 -38.46165 -38.45773 -38.44851 -38.44590
 Alpha  occ. eigenvalues --  -38.44163 -38.44163  -2.22054  -2.21854  -2.21558
 Alpha  occ. eigenvalues --   -2.20617  -2.20363  -2.19984  -2.19963  -1.15731
 Alpha  occ. eigenvalues --   -1.15731  -1.15690  -1.15531  -1.15531  -1.15486
 Alpha  occ. eigenvalues --   -1.15171  -1.15171  -1.15171  -1.14329  -1.14287
 Alpha  occ. eigenvalues --   -1.14281  -1.14034  -1.14034  -1.13971  -1.13843
 Alpha  occ. eigenvalues --   -1.13638  -1.13638  -1.13594  -1.13594  -1.13494
 Alpha  occ. eigenvalues --   -0.14005  -0.13229  -0.12801  -0.11565
 Alpha virt. eigenvalues --   -0.09071  -0.05354  -0.04849  -0.02892  -0.02889
 Alpha virt. eigenvalues --   -0.02418  -0.02418  -0.02100  -0.02100  -0.02100
 Alpha virt. eigenvalues --   -0.01981  -0.01853  -0.01836  -0.00928  -0.00688
 Alpha virt. eigenvalues --   -0.00670  -0.00050   0.00086   0.00118   0.00688
 Alpha virt. eigenvalues --    0.00694   0.00696   0.00885   0.00916   0.01084
 Alpha virt. eigenvalues --    0.01263   0.01264   0.01276   0.01285   0.01332
 Alpha virt. eigenvalues --    0.01332   0.01332   0.01338   0.01358   0.01862
 Alpha virt. eigenvalues --    0.01986   0.02025   0.02182   0.02311   0.02509
 Alpha virt. eigenvalues --    0.02568   0.02579   0.02908   0.02910   0.03712
 Alpha virt. eigenvalues --    0.03792   0.03902   0.03983   0.04451   0.04575
 Alpha virt. eigenvalues --    0.05574   0.07045   0.07260   0.07290   0.07290
 Alpha virt. eigenvalues --    0.07397   0.07469   0.07469   0.07469   0.07474
 Alpha virt. eigenvalues --    0.07536   0.08011   0.08016   0.08062   0.08530
 Alpha virt. eigenvalues --    0.08566   0.08675   0.08816   0.09825   0.09826
 Alpha virt. eigenvalues --    0.10229   0.10651   0.10706   0.10783   0.12232
 Alpha virt. eigenvalues --    0.13372   0.15324   0.15509   0.17561   0.28619
 Alpha virt. eigenvalues --    0.28992   0.29842   0.29842   0.30096   0.32326
 Alpha virt. eigenvalues --    0.32561   0.32561   0.32704   0.32710   0.33225
 Alpha virt. eigenvalues --    0.33225   0.33225   0.33225   0.33225   0.34169
 Alpha virt. eigenvalues --    0.34173   0.34302   0.34305   0.34571   0.34657
 Alpha virt. eigenvalues --    0.35375   0.35386   0.37864   0.38031   0.38149
 Alpha virt. eigenvalues --    0.38545   0.38545   0.41706   0.41874   0.41939
 Alpha virt. eigenvalues --    0.41939   0.41939   0.42161   0.42182   0.42595
 Alpha virt. eigenvalues --    0.42682   0.43136   0.43136   0.43490   0.43766
 Alpha virt. eigenvalues --    0.44096   0.44096   0.44708   0.45133   0.45213
 Alpha virt. eigenvalues --    0.45303   0.47848   0.48331   0.49219   0.50531
 Alpha virt. eigenvalues --    0.50531   0.51291   0.52371   0.70531   0.75968
 Alpha virt. eigenvalues --    1.98666   1.99269   2.03231   2.03436   2.06070
 Alpha virt. eigenvalues --    2.11991   2.15484   4.41295   4.41473   4.42467
 Alpha virt. eigenvalues --    4.42504   4.42793   4.42809   4.42809   4.42809
 Alpha virt. eigenvalues --    4.42820   4.43354   4.43354   4.43436   4.43569
 Alpha virt. eigenvalues --    4.44541   4.46109   4.46280   4.46329   4.46329
 Alpha virt. eigenvalues --    4.46404   4.65945   4.69402  96.17682  96.18038
 Alpha virt. eigenvalues --   96.22477  96.22989  96.26015  96.34701  96.38433
  Beta  occ. eigenvalues --  -38.46374 -38.46165 -38.45588 -38.44851 -38.44590
  Beta  occ. eigenvalues --  -38.44163 -38.44163  -2.22054  -2.21854  -2.21212
  Beta  occ. eigenvalues --   -2.20617  -2.20363  -2.19984  -2.19963  -1.15731
  Beta  occ. eigenvalues --   -1.15731  -1.15690  -1.15531  -1.15531  -1.15486
  Beta  occ. eigenvalues --   -1.14936  -1.14936  -1.14936  -1.14329  -1.14287
  Beta  occ. eigenvalues --   -1.14281  -1.14034  -1.14034  -1.13971  -1.13843
  Beta  occ. eigenvalues --   -1.13638  -1.13638  -1.13594  -1.13594  -1.13494
  Beta  occ. eigenvalues --   -0.14005  -0.13229  -0.11565
  Beta virt. eigenvalues --   -0.09071  -0.06221  -0.05354  -0.04849  -0.02892
  Beta virt. eigenvalues --   -0.02889  -0.02418  -0.02418  -0.01981  -0.01853
  Beta virt. eigenvalues --   -0.01836  -0.00928  -0.00688  -0.00670  -0.00087
  Beta virt. eigenvalues --   -0.00087  -0.00087  -0.00050   0.00086   0.00688
  Beta virt. eigenvalues --    0.00694   0.00696   0.00846   0.00885   0.00916
  Beta virt. eigenvalues --    0.01084   0.01263   0.01264   0.01276   0.01285
  Beta virt. eigenvalues --    0.01338   0.01358   0.01862   0.01986   0.02025
  Beta virt. eigenvalues --    0.02182   0.02246   0.02246   0.02246   0.02311
  Beta virt. eigenvalues --    0.02509   0.02568   0.02579   0.02908   0.02910
  Beta virt. eigenvalues --    0.03712   0.03792   0.03902   0.03983   0.04451
  Beta virt. eigenvalues --    0.04575   0.05574   0.07045   0.07260   0.07290
  Beta virt. eigenvalues --    0.07290   0.07397   0.07474   0.07536   0.08011
  Beta virt. eigenvalues --    0.08062   0.08530   0.08566   0.08675   0.08816
  Beta virt. eigenvalues --    0.08825   0.08825   0.08825   0.09456   0.09825
  Beta virt. eigenvalues --    0.09826   0.10229   0.10651   0.10706   0.10783
  Beta virt. eigenvalues --    0.12232   0.13372   0.15324   0.15509   0.17561
  Beta virt. eigenvalues --    0.28619   0.28992   0.29842   0.29842   0.30096
  Beta virt. eigenvalues --    0.32326   0.32561   0.32561   0.32704   0.32710
  Beta virt. eigenvalues --    0.34169   0.34173   0.34302   0.34305   0.34571
  Beta virt. eigenvalues --    0.34657   0.35323   0.35323   0.35323   0.35323
  Beta virt. eigenvalues --    0.35323   0.35375   0.35386   0.37864   0.38031
  Beta virt. eigenvalues --    0.38149   0.38545   0.38545   0.41706   0.41874
  Beta virt. eigenvalues --    0.42161   0.42182   0.42595   0.42682   0.43136
  Beta virt. eigenvalues --    0.43136   0.43433   0.43433   0.43433   0.43490
  Beta virt. eigenvalues --    0.43766   0.44096   0.44096   0.44708   0.45133
  Beta virt. eigenvalues --    0.45213   0.45303   0.47848   0.48331   0.49219
  Beta virt. eigenvalues --    0.50531   0.50531   0.51291   0.52371   0.70531
  Beta virt. eigenvalues --    0.75968   1.99269   1.99534   2.03231   2.03436
  Beta virt. eigenvalues --    2.06070   2.11991   2.15484   4.41295   4.41473
  Beta virt. eigenvalues --    4.42467   4.42504   4.42793   4.42820   4.43132
  Beta virt. eigenvalues --    4.43132   4.43132   4.43354   4.43354   4.43436
  Beta virt. eigenvalues --    4.43569   4.44541   4.46109   4.46280   4.46329
  Beta virt. eigenvalues --    4.46329   4.46404   4.65945   4.69402  96.17951
  Beta virt. eigenvalues --   96.18038  96.22477  96.22989  96.26015  96.34701
  Beta virt. eigenvalues --   96.38433
          Condensed to atoms (all electrons):
               1          2          3          4          5          6
     1  Na  11.000000   0.000000   0.000000   0.000000   0.000000   0.000000
     2  Na   0.000000  10.873735   0.061114   0.040477  -0.020267   0.000000
     3  Na   0.000000   0.061114  10.618061   0.305820   0.030969   0.000000
     4  Na   0.000000   0.040477   0.305820  10.669974   0.119891   0.000000
     5  Na   0.000000  -0.020267   0.030969   0.119891  10.762220   0.000000
     6  Na   0.000000   0.000000   0.000000   0.000000   0.000000  10.637944
     7  Na   0.000000   0.000000   0.000000   0.000000   0.000000   0.362055
               7
     1  Na   0.000000
     2  Na   0.000000
     3  Na   0.000000
     4  Na   0.000000
     5  Na   0.000000
     6  Na   0.362055
     7  Na  10.637947
          Atomic-Atomic Spin Densities.
               1          2          3          4          5          6
     1  Na   1.000000   0.000000   0.000000   0.000000   0.000000   0.000000
     2  Na   0.000000   0.000000   0.000000  -0.000000  -0.000000   0.000000
     3  Na   0.000000   0.000000  -0.000000  -0.000000   0.000000   0.000000
     4  Na   0.000000  -0.000000  -0.000000   0.000000  -0.000000   0.000000
     5  Na   0.000000  -0.000000   0.000000  -0.000000  -0.000000   0.000000
     6  Na   0.000000   0.000000   0.000000   0.000000   0.000000  -0.000000
     7  Na   0.000000   0.000000   0.000000   0.000000   0.000000  -0.000000
               7
     1  Na   0.000000
     2  Na   0.000000
     3  Na   0.000000
     4  Na   0.000000
     5  Na   0.000000
     6  Na  -0.000000
     7  Na   0.000000
 Mulliken charges and spin densities:
               1          2
     1  Na  -0.000000   1.000000
     2  Na   0.044940   0.000000
     3  Na  -0.015964   0.000000
     4  Na  -0.136163  -0.000000
     5  Na   0.107187  -0.000000
     6  Na   0.000002  -0.000000
     7  Na  -0.000002   0.000000
 Sum of Mulliken charges =  -0.00000   1.00000
 Mulliken charges and spin densities with hydrogens summed into heavy atoms:
               1          2
     1  Na  -0.000000   1.000000
     2  Na   0.044940   0.000000
     3  Na  -0.015964   0.000000
     4  Na  -0.136163  -0.000000
     5  Na   0.107187  -0.000000
     6  Na   0.000002  -0.000000
     7  Na  -0.000002   0.000000
 Electronic spatial extent (au):  <R**2>=         768561.1557
 Charge=             -0.0000 electrons
 Dipole moment (field-independent basis, Debye):
    X=              0.0619    Y=             -0.2198    Z=              0.2044  Tot=              0.3065
 Quadrupole moment (field-independent basis, Debye-Ang):
   XX=            -47.1848   YY=            -62.6128   ZZ=            -72.8070
   XY=             -2.4094   XZ=              7.4770   YZ=              0.6409
 Traceless Quadrupole moment (field-independent basis, Debye-Ang):
   XX=             13.6834   YY=             -1.7446   ZZ=            -11.9388
   XY=             -2.4094   XZ=              7.4770   YZ=              0.6409
 Octapole moment (field-independent basis, Debye-Ang**2):
  XXX=           1786.8226  YYY=           -238.6030  ZZZ=              1.4997  XYY=           -272.5697
  XXY=           -711.7620  XXZ=            235.6009  XZZ=           -342.6566  YZZ=             39.3101
  YYZ=            236.5061  XYZ=           -519.1832
 Hexadecapole moment (field-independent basis, Debye-Ang**3):
 XXXX=        -777675.9384 YYYY=        -455776.9377 ZZZZ=           -499.0572 XXXY=         -42442.7588
 XXXZ=           7366.7285 YYYX=         -17503.7677 YYYZ=           -145.2748 ZZZX=             -6.3893
 ZZZY=             20.7398 XXYY=        -182709.1070 XXZZ=        -118957.2794 YYZZ=         -77879.9441
 XXYZ=          17148.8738 YYXZ=          -4393.0995 ZZXY=          -5244.2784
 N-N= 1.043499512283D+02 E-N=-2.937066417258D+03  KE= 1.132788428460D+03
                          Isotropic Fermi Contact Couplings
        Atom                 a.u.       MegaHertz       Gauss      10(-4) cm-1
     1  Na(23)             0.79296     938.09920     334.73712     312.91621
     2  Na(23)             0.00000       0.00000       0.00000       0.00000
     3  Na(23)            -0.00000      -0.00000      -0.00000      -0.00000
     4  Na(23)             0.00000       0.00000       0.00000       0.00000
     5  Na(23)            -0.00000      -0.00000      -0.00000      -0.00000
     6  Na(23)             0.00000       0.00000       0.00000       0.00000
     7  Na(23)            -0.00000      -0.00000      -0.00000      -0.00000
 --------------------------------------------------------
       Center         ----  Spin Dipole Couplings  ----
                      3XX-RR        3YY-RR        3ZZ-RR
 --------------------------------------------------------
     1   Atom        0.000000      0.000000     -0.000000
     2   Atom       -0.000000      0.000000     -0.000000
     3   Atom       -0.000000      0.000000     -0.000000
     4   Atom       -0.000000      0.000000     -0.000000
     5   Atom       -0.000000      0.000000     -0.000000
     6   Atom        0.000000     -0.000000     -0.000000
     7   Atom        0.000000     -0.000000     -0.000000
 --------------------------------------------------------
                        XY            XZ            YZ
 --------------------------------------------------------
     1   Atom        0.000000      0.000000      0.000000
     2   Atom        0.000000      0.000000      0.000000
     3   Atom        0.000000      0.000000      0.000000
     4   Atom        0.000000      0.000000      0.000000
     5   Atom        0.000000     -0.000000     -0.000000
     6   Atom        0.000000     -0.000000     -0.000000
     7   Atom        0.000000      0.000000      0.000000
 --------------------------------------------------------


 ---------------------------------------------------------------------------------
              Anisotropic Spin Dipole Couplings in Principal Axis System
 ---------------------------------------------------------------------------------

       Atom             a.u.   MegaHertz   Gauss  10(-4) cm-1        Axes

              Baa    -0.0000    -0.000    -0.000    -0.000  0.7148 -0.6646  0.2177
     1 Na(23) Bbb    -0.0000    -0.000    -0.000    -0.000 -0.2865  0.0058  0.9581
              Bcc     0.0000     0.000     0.000     0.000  0.6380  0.7472  0.1863
 
              Baa    -0.0000    -0.000    -0.000    -0.000  0.9196 -0.3607  0.1560
     2 Na(23) Bbb    -0.0000    -0.000    -0.000    -0.000 -0.1464  0.0540  0.9878
              Bcc     0.0000     0.000     0.000     0.000  0.3647  0.9311  0.0031
 
              Baa    -0.0000    -0.000    -0.000    -0.000 -0.0618  0.0166  0.9979
     3 Na(23) Bbb    -0.0000    -0.000    -0.000    -0.000  0.9424 -0.3284  0.0638
              Bcc     0.0000     0.000     0.000     0.000  0.3288  0.9444  0.0046
 
              Baa    -0.0000    -0.000    -0.000    -0.000  0.9334 -0.2949  0.2046
     4 Na(23) Bbb    -0.0000    -0.000    -0.000    -0.000 -0.1952  0.0613  0.9789
              Bcc     0.0000     0.000     0.000     0.000  0.3012  0.9536  0.0003
 
              Baa    -0.0000    -0.000    -0.000    -0.000  0.8685 -0.2294  0.4394
     5 Na(23) Bbb    -0.0000    -0.000    -0.000    -0.000 -0.4218  0.1237  0.8982
              Bcc     0.0000     0.000     0.000     0.000  0.2604  0.9654 -0.0106
 
              Baa    -0.0000    -0.000    -0.000    -0.000 -0.2863  0.6182  0.7320
     6 Na(23) Bbb    -0.0000    -0.000    -0.000    -0.000  0.3193 -0.6588  0.6812
              Bcc     0.0000     0.000     0.000     0.000  0.9034  0.4287 -0.0088
 
              Baa    -0.0000    -0.000    -0.000    -0.000 -0.3013  0.5998  0.7412
     7 Na(23) Bbb    -0.0000    -0.000    -0.000    -0.000  0.3230 -0.6671  0.6712
              Bcc     0.0000     0.000     0.000     0.000  0.8971  0.4417  0.0072
 

 ---------------------------------------------------------------------------------

 No NMR shielding tensors so no spin-rotation constants.
 Leave Link  601 at Thu Nov 23 12:40:40 2023, MaxMem=   104857600 cpu:              17.1 elap:              16.9
 (Enter /home/sekinelabo/g16/l701.exe)
 ... and contract with generalized density number  0.
 Compute integral first derivatives.
 Leave Link  701 at Thu Nov 23 12:40:47 2023, MaxMem=   104857600 cpu:               7.1 elap:               7.0
 (Enter /home/sekinelabo/g16/l702.exe)
 L702 exits ... SP integral derivatives will be done elsewhere.
 Leave Link  702 at Thu Nov 23 12:40:48 2023, MaxMem=   104857600 cpu:               0.6 elap:               0.7
 (Enter /home/sekinelabo/g16/l703.exe)
 Integral derivatives from FoFJK, PRISM(SPDF).
 Compute integral first derivatives, UseDBF=F ICtDFT=           0.
 Calling FoFJK, ICntrl=      2127 FMM=F ISym2X=0 I1Cent= 0 IOpClX= 1 NMat=1 NMatS=1 NMatT=0.
 FoFJK:  IHMeth= 1 ICntrl=    2127 DoSepK=F KAlg= 0 I1Cent=           0 FoldK=F
 IRaf=         0 NMat=       1 IRICut=       1 DoRegI=T DoRafI=F ISym2E= 0 IDoP0=0 IntGTp=1.
 FoFCou: FMM=F IPFlag=           0 FMFlag=      100000 FMFlg1=         800
         NFxFlg=           0 DoJE=F BraDBF=F KetDBF=F FulRan=T
         wScrn=  0.000000 ICntrl=      2127 IOpCl=  1 I1Cent=           0 NGrid=           0
         NMat0=    1 NMatS0=      1 NMatT0=    0 NMatD0=    1 NMtDS0=    0 NMtDT0=    0
 Symmetry not used in FoFCou.
 Leave Link  703 at Thu Nov 23 12:41:06 2023, MaxMem=   104857600 cpu:              20.8 elap:              18.0
 (Enter /home/sekinelabo/g16/l716.exe)
 Dipole        = 2.43426554D-02-8.64882779D-02 8.04292518D-02
 ***** Axes restored to original set *****
 -------------------------------------------------------------------
 Center     Atomic                   Forces (Hartrees/Bohr)
 Number     Number              X              Y              Z
 -------------------------------------------------------------------
      1       11           0.000000000   -0.000000000    0.000000000
      2       11          -0.004412581    0.003552383    0.000200081
      3       11           0.008205039   -0.005530025    0.000377140
      4       11          -0.009112620    0.003971952   -0.001987572
      5       11           0.005320163   -0.001994310    0.001410351
      6       11           0.001034619    0.002508065   -0.002693835
      7       11          -0.001034619   -0.002508065    0.002693835
 -------------------------------------------------------------------
 Cartesian Forces:  Max     0.009112620 RMS     0.003757207
 Z-matrix is all fixed cartesians, so copy forces.
 Force constants in Cartesian coordinates: 
                1             2             3             4             5 
      1  0.100000D+01
      2  0.000000D+00  0.100000D+01
      3  0.000000D+00  0.000000D+00  0.100000D+01
      4  0.000000D+00  0.000000D+00  0.000000D+00  0.100000D+01
      5  0.000000D+00  0.000000D+00  0.000000D+00  0.000000D+00  0.100000D+01
      6  0.000000D+00  0.000000D+00  0.000000D+00  0.000000D+00  0.000000D+00
      7  0.000000D+00  0.000000D+00  0.000000D+00  0.000000D+00  0.000000D+00
      8  0.000000D+00  0.000000D+00  0.000000D+00  0.000000D+00  0.000000D+00
      9  0.000000D+00  0.000000D+00  0.000000D+00  0.000000D+00  0.000000D+00
     10  0.000000D+00  0.000000D+00  0.000000D+00  0.000000D+00  0.000000D+00
     11  0.000000D+00  0.000000D+00  0.000000D+00  0.000000D+00  0.000000D+00
     12  0.000000D+00  0.000000D+00  0.000000D+00  0.000000D+00  0.000000D+00
     13  0.000000D+00  0.000000D+00  0.000000D+00  0.000000D+00  0.000000D+00
     14  0.000000D+00  0.000000D+00  0.000000D+00  0.000000D+00  0.000000D+00
     15  0.000000D+00  0.000000D+00  0.000000D+00  0.000000D+00  0.000000D+00
     16  0.000000D+00  0.000000D+00  0.000000D+00  0.000000D+00  0.000000D+00
     17  0.000000D+00  0.000000D+00  0.000000D+00  0.000000D+00  0.000000D+00
     18  0.000000D+00  0.000000D+00  0.000000D+00  0.000000D+00  0.000000D+00
     19  0.000000D+00  0.000000D+00  0.000000D+00  0.000000D+00  0.000000D+00
     20  0.000000D+00  0.000000D+00  0.000000D+00  0.000000D+00  0.000000D+00
     21  0.000000D+00  0.000000D+00  0.000000D+00  0.000000D+00  0.000000D+00
                6             7             8             9            10 
      6  0.100000D+01
      7  0.000000D+00  0.272091D-01
      8  0.000000D+00 -0.142099D-01  0.742111D-02
      9  0.000000D+00  0.412771D-02 -0.215569D-02  0.626186D-03
     10  0.000000D+00 -0.272091D-01  0.142099D-01 -0.412771D-02  0.272091D-01
     11  0.000000D+00  0.142099D-01 -0.742111D-02  0.215569D-02 -0.142099D-01
     12  0.000000D+00 -0.412771D-02  0.215569D-02 -0.626186D-03  0.412771D-02
     13  0.000000D+00  0.000000D+00  0.000000D+00  0.000000D+00  0.000000D+00
     14  0.000000D+00  0.000000D+00  0.000000D+00  0.000000D+00  0.000000D+00
     15  0.000000D+00  0.000000D+00  0.000000D+00  0.000000D+00  0.000000D+00
     16  0.000000D+00  0.000000D+00  0.000000D+00  0.000000D+00  0.000000D+00
     17  0.000000D+00  0.000000D+00  0.000000D+00  0.000000D+00  0.000000D+00
     18  0.000000D+00  0.000000D+00  0.000000D+00  0.000000D+00  0.000000D+00
     19  0.000000D+00  0.000000D+00  0.000000D+00  0.000000D+00  0.000000D+00
     20  0.000000D+00  0.000000D+00  0.000000D+00  0.000000D+00  0.000000D+00
     21  0.000000D+00  0.000000D+00  0.000000D+00  0.000000D+00  0.000000D+00
               11            12            13            14            15 
     11  0.742111D-02
     12 -0.215569D-02  0.626186D-03
     13  0.000000D+00  0.000000D+00  0.100000D+01
     14  0.000000D+00  0.000000D+00  0.000000D+00  0.100000D+01
     15  0.000000D+00  0.000000D+00  0.000000D+00  0.000000D+00  0.100000D+01
     16  0.000000D+00  0.000000D+00  0.000000D+00  0.000000D+00  0.000000D+00
     17  0.000000D+00  0.000000D+00  0.000000D+00  0.000000D+00  0.000000D+00
     18  0.000000D+00  0.000000D+00  0.000000D+00  0.000000D+00  0.000000D+00
     19  0.000000D+00  0.000000D+00  0.000000D+00  0.000000D+00  0.000000D+00
     20  0.000000D+00  0.000000D+00  0.000000D+00  0.000000D+00  0.000000D+00
     21  0.000000D+00  0.000000D+00  0.000000D+00  0.000000D+00  0.000000D+00
               16            17            18            19            20 
     16  0.853827D+00
     17 -0.348663D+00  0.168300D+00
     18 -0.107375D-01 -0.193284D-01  0.218271D-01
     19 -0.321860D-02 -0.780264D-02  0.838043D-02  0.853827D+00
     20 -0.780264D-02 -0.189154D-01  0.203161D-01 -0.348663D+00  0.168300D+00
     21  0.838043D-02  0.203161D-01 -0.218206D-01 -0.107375D-01 -0.193284D-01
               21 
     21  0.218271D-01
 Leave Link  716 at Thu Nov 23 12:41:07 2023, MaxMem=   104857600 cpu:               0.8 elap:               0.7
 (Enter /home/sekinelabo/g16/l103.exe)

 GradGradGradGradGradGradGradGradGradGradGradGradGradGradGradGradGradGrad
 Berny optimization.
 Search for a local minimum.
 Step number   1 out of a maximum of    2
 All quantities printed in internal units (Hartrees-Bohrs-Radians)
 Second derivative matrix not updated -- first step.
 ITU=  0
     Eigenvalues ---    0.00000   0.00000   0.00051   0.07051   0.08791
     Eigenvalues ---    0.19816   0.37870   0.49576   0.80546   0.99658
     Eigenvalues ---    1.00000   1.00000   1.00000   1.00000   1.00000
 Eigenvalue     1 is   0.00D+00 Eigenvector:
                          Z3        Z4        Z7        Z6        Y6
   1                    0.63569  -0.61332  -0.23840   0.21602   0.20808
                          Y7        X6        X7        X3        X4
   1                   -0.20761   0.08780  -0.08767  -0.08051   0.08038
 Eigenvalue     2 is   2.22D-16 Eigenvector:
                          Y3        Y4        X3        X4        Y7
   1                    0.63139  -0.60854   0.33277  -0.32320  -0.06570
                          Z6        Z7        Y6        Z3        X7
   1                    0.05998  -0.05870   0.04286  -0.02841  -0.02770
 Quadratic step=3.566D+00 exceeds max=3.000D-01 adjusted using Lamda=-1.571D-03.
 Angle between NR and scaled steps=  40.78 degrees.
 Angle between quadratic step and forces=  51.30 degrees.
 Linear search not attempted -- first point.
 B after Tr=     0.000000   -0.000000    0.000000
         Rot=    1.000000   -0.000000   -0.000000    0.000000 Ang=   0.00 deg.
 Variable       Old X    -DE/DX   Delta X   Delta X   Delta X     New X
                                 (Linear)    (Quad)   (Total)
    X1       28.18186   0.00000   0.00000   0.00141   0.00141  28.18328
    Y1      186.11346  -0.00000   0.00000   0.00070   0.00070 186.11416
    Z1        3.16028   0.00000   0.00000  -0.00125  -0.00125   3.15904
    X2       23.80866  -0.00441   0.00000  -0.00399  -0.00399  23.80467
    Y2        0.58049   0.00355   0.00000   0.00427   0.00427   0.58476
    Z2        3.03579   0.00020   0.00000   0.00103   0.00103   3.03682
    X3       17.03569   0.00821   0.00000   0.06873   0.06873  17.10442
    Y3        6.00787  -0.00553   0.00000  -0.18681  -0.18681   5.82106
    Z3        3.32469   0.00038   0.00000  -0.06882  -0.06882   3.25587
    X4       12.00031  -0.00911   0.00000  -0.07527  -0.07527  11.92504
    Y4        8.63760   0.00397   0.00000   0.17749   0.17749   8.81508
    Z4        2.56081  -0.00199   0.00000   0.06429   0.06429   2.62510
    X5        4.73660   0.00532   0.00000   0.00577   0.00577   4.74237
    Y5       11.38397  -0.00199   0.00000  -0.00119  -0.00119  11.38278
    Z5        0.65222   0.00141   0.00000   0.00221   0.00221   0.65443
    X6      188.69728   0.00103   0.00000   0.00849   0.00849 188.70576
    Y6        7.07066   0.00251   0.00000   0.01929   0.01929   7.08994
    Z6        0.17854  -0.00269   0.00000  -0.04139  -0.04139   0.13715
    X7      187.21649  -0.00103   0.00000  -0.00514  -0.00514 187.21135
    Y7        3.48088  -0.00251   0.00000  -0.01373  -0.01373   3.46714
    Z7        4.03415   0.00269   0.00000   0.04393   0.04393   4.07807
         Item               Value     Threshold  Converged?
 Maximum Force            0.009113     0.000450     NO 
 RMS     Force            0.003757     0.000300     NO 
 Maximum Displacement     0.186814     0.001800     NO 
 RMS     Displacement     0.065480     0.001200     NO 
 Predicted change in Energy=-1.688032D-03
 GradGradGradGradGradGradGradGradGradGradGradGradGradGradGradGradGradGrad

 Leave Link  103 at Thu Nov 23 12:41:09 2023, MaxMem=   104857600 cpu:               2.9 elap:               2.3
 (Enter /home/sekinelabo/g16/l9999.exe)
 1\1\GINC-SEKINELABO-XA7R-R37\Force\UB3LYP\6-311+G(d)\Na7(2)\SEKINELABO
 \23-Nov-2023\0\\#P B3LYP/6-311+g(d) force\\DPGEN\\0,2\Na,14.9132,98.48
 7,1.67235\Na,12.599,0.307181,1.60647\Na,9.0149,3.17923,1.75935\Na,6.35
 029,4.57082,1.35512\Na,2.5065,6.02414,0.345138\Na,99.8543,3.74163,0.09
 4481\Na,99.0707,1.842,2.13478\\Version=ES64L-G16RevB.01\State=2-A\HF=-
 1136.0637928\S2=0.750009\S2-1=0.\S2A=0.75\RMSD=4.021e-09\RMSF=3.757e-0
 3\Dipole=-0.0559741,-0.0700522,-0.0806303\Quadrupole=9.7484827,-0.8411
 129,-8.9073698,-2.8544685,4.9100145,-2.554149\PG=C01 [X(Na7)]\\@


 K N O W I N G  IS A BARRIER WHICH PREVENTS LEARNING

                     -- TEACHING OF THE BENE GESSERIT
 Job cpu time:       0 days  0 hours  8 minutes 57.5 seconds.
 Elapsed time:       0 days  0 hours 10 minutes 48.8 seconds.
 File lengths (MBytes):  RWF=     46 Int=      0 D2E=      0 Chk=      4 Scr=      1
 Normal termination of Gaussian 16 at Thu Nov 23 12:41:10 2023.
