 Entering Gaussian System, Link 0=g16
 Initial command:
 /home/sekinelabo/g16/l1.exe "/home/sekinelabo/g16temp/Gau-87458.inp" -scrdir="/home/sekinelabo/g16temp/"
 Entering Link 1 = /home/sekinelabo/g16/l1.exe PID=     87460.
  
 Copyright (c) 1988-2017, Gaussian, Inc.  All Rights Reserved.
  
 This is part of the Gaussian(R) 16 program.  It is based on
 the Gaussian(R) 09 system (copyright 2009, Gaussian, Inc.),
 the Gaussian(R) 03 system (copyright 2003, Gaussian, Inc.),
 the Gaussian(R) 98 system (copyright 1998, Gaussian, Inc.),
 the Gaussian(R) 94 system (copyright 1995, Gaussian, Inc.),
 the Gaussian 92(TM) system (copyright 1992, Gaussian, Inc.),
 the Gaussian 90(TM) system (copyright 1990, Gaussian, Inc.),
 the Gaussian 88(TM) system (copyright 1988, Gaussian, Inc.),
 the Gaussian 86(TM) system (copyright 1986, Carnegie Mellon
 University), and the Gaussian 82(TM) system (copyright 1983,
 Carnegie Mellon University). Gaussian is a federally registered
 trademark of Gaussian, Inc.
  
 This software contains proprietary and confidential information,
 including trade secrets, belonging to Gaussian, Inc.
  
 This software is provided under written license and may be
 used, copied, transmitted, or stored only in accord with that
 written license.
  
 The following legend is applicable only to US Government
 contracts under FAR:
  
                    RESTRICTED RIGHTS LEGEND
  
 Use, reproduction and disclosure by the US Government is
 subject to restrictions as set forth in subparagraphs (a)
 and (c) of the Commercial Computer Software - Restricted
 Rights clause in FAR 52.227-19.
  
 Gaussian, Inc.
 340 Quinnipiac St., Bldg. 40, Wallingford CT 06492
  
  
 ---------------------------------------------------------------
 Warning -- This program may not be used in any manner that
 competes with the business of Gaussian, Inc. or will provide
 assistance to any competitor of Gaussian, Inc.  The licensee
 of this program is prohibited from giving any competitor of
 Gaussian, Inc. access to this program.  By using this program,
 the user acknowledges that Gaussian, Inc. is engaged in the
 business of creating and licensing software in the field of
 computational chemistry and represents and warrants to the
 licensee that it is not a competitor of Gaussian, Inc. and that
 it will not use this program in any manner prohibited above.
 ---------------------------------------------------------------
  

 Cite this work as:
 Gaussian 16, Revision B.01,
 M. J. Frisch, G. W. Trucks, H. B. Schlegel, G. E. Scuseria, 
 M. A. Robb, J. R. Cheeseman, G. Scalmani, V. Barone, 
 G. A. Petersson, H. Nakatsuji, X. Li, M. Caricato, A. V. Marenich, 
 J. Bloino, B. G. Janesko, R. Gomperts, B. Mennucci, H. P. Hratchian, 
 J. V. Ortiz, A. F. Izmaylov, J. L. Sonnenberg, D. Williams-Young, 
 F. Ding, F. Lipparini, F. Egidi, J. Goings, B. Peng, A. Petrone, 
 T. Henderson, D. Ranasinghe, V. G. Zakrzewski, J. Gao, N. Rega, 
 G. Zheng, W. Liang, M. Hada, M. Ehara, K. Toyota, R. Fukuda, 
 J. Hasegawa, M. Ishida, T. Nakajima, Y. Honda, O. Kitao, H. Nakai, 
 T. Vreven, K. Throssell, J. A. Montgomery, Jr., J. E. Peralta, 
 F. Ogliaro, M. J. Bearpark, J. J. Heyd, E. N. Brothers, K. N. Kudin, 
 V. N. Staroverov, T. A. Keith, R. Kobayashi, J. Normand, 
 K. Raghavachari, A. P. Rendell, J. C. Burant, S. S. Iyengar, 
 J. Tomasi, M. Cossi, J. M. Millam, M. Klene, C. Adamo, R. Cammi, 
 J. W. Ochterski, R. L. Martin, K. Morokuma, O. Farkas, 
 J. B. Foresman, and D. J. Fox, Gaussian, Inc., Wallingford CT, 2016.
 
 ******************************************
 Gaussian 16:  ES64L-G16RevB.01 20-Dec-2017
                29-Sep-2023 
 ******************************************
 %NProcShared=16
 Will use up to   16 processors via shared memory.
 %mem=12GB
 %Chk=checkpoint.chk
 -------------------------
 #p B3LYP/6-311+g(d) force
 -------------------------
 1/10=7,30=1,38=1/1,3;
 2/12=2,17=6,18=5,40=1/2;
 3/5=4,6=6,7=11,11=2,25=1,30=1,71=1,74=-5/1,2,3;
 4//1;
 5/5=2,38=5/2;
 6/7=2,8=2,9=2,10=2,28=1/1;
 7/29=1/1,2,3,16;
 1/10=7,30=1/3;
 99//99;
 Leave Link    1 at Fri Sep 29 22:51:13 2023, MaxMem=  1610612736 cpu:               0.2 elap:               0.0
 (Enter /home/sekinelabo/g16/l101.exe)


 Symbolic Z-matrix:
 Charge =  0 Multiplicity = 1
 Na                    0.        0.        0. 
 Na                    0.        0.        3.99304 
 Na                    0.        0.        8.49524 
 Na                    0.        0.        12.32584 
 
 ITRead=  0  0  0  0
 MicOpt= -1 -1 -1 -1
 NAtoms=      4 NQM=        4 NQMF=       0 NMMI=      0 NMMIF=      0
                NMic=       0 NMicF=      0.
                    Isotopes and Nuclear Properties:
 (Nuclear quadrupole moments (NQMom) in fm**2, nuclear magnetic moments (NMagM)
  in nuclear magnetons)

  Atom         1           2           3           4
 IAtWgt=          23          23          23          23
 AtmWgt=  22.9897697  22.9897697  22.9897697  22.9897697
 NucSpn=           3           3           3           3
 AtZEff=  -0.0000000  -0.0000000  -0.0000000  -0.0000000
 NQMom=   10.4000000  10.4000000  10.4000000  10.4000000
 NMagM=    2.2175200   2.2175200   2.2175200   2.2175200
 AtZNuc=  11.0000000  11.0000000  11.0000000  11.0000000
 Leave Link  101 at Fri Sep 29 22:51:13 2023, MaxMem=  1610612736 cpu:               1.7 elap:               0.1
 (Enter /home/sekinelabo/g16/l103.exe)

 GradGradGradGradGradGradGradGradGradGradGradGradGradGradGradGradGradGrad
 Berny optimization.
 Initialization pass.
 Trust Radius=3.00D-01 FncErr=1.00D-07 GrdErr=1.00D-07 EigMax=2.50D+02 EigMin=1.00D-04
 Number of steps in this run=      2 maximum allowed number of steps=      2.
 GradGradGradGradGradGradGradGradGradGradGradGradGradGradGradGradGradGrad

 Leave Link  103 at Fri Sep 29 22:51:13 2023, MaxMem=  1610612736 cpu:               0.2 elap:               0.0
 (Enter /home/sekinelabo/g16/l202.exe)
                          Input orientation:                          
 ---------------------------------------------------------------------
 Center     Atomic      Atomic             Coordinates (Angstroms)
 Number     Number       Type             X           Y           Z
 ---------------------------------------------------------------------
      1         11           0        0.000000    0.000000    0.000000
      2         11           0        0.000000    0.000000    3.993043
      3         11           0        0.000000    0.000000    8.495242
      4         11           0        0.000000    0.000000   12.325840
 ---------------------------------------------------------------------
                    Distance matrix (angstroms):
                    1          2          3          4
     1  Na   0.000000
     2  Na   3.993043   0.000000
     3  Na   8.495242   4.502199   0.000000
     4  Na  12.325840   8.332797   3.830598   0.000000
 Stoichiometry    Na4
 Framework group  C*V[C*(NaNaNaNa)]
 Deg. of freedom     3
 Full point group                 C*V     NOp   4
 Largest Abelian subgroup         C2V     NOp   4
 Largest concise Abelian subgroup C1      NOp   1
                         Standard orientation:                         
 ---------------------------------------------------------------------
 Center     Atomic      Atomic             Coordinates (Angstroms)
 Number     Number       Type             X           Y           Z
 ---------------------------------------------------------------------
      1         11           0        0.000000    0.000000    6.203531
      2         11           0        0.000000    0.000000    2.210488
      3         11           0        0.000000    0.000000   -2.291711
      4         11           0        0.000000    0.000000   -6.122309
 ---------------------------------------------------------------------
 Rotational constants (GHZ):           0.0000000           0.2553030           0.2553030
 Leave Link  202 at Fri Sep 29 22:51:13 2023, MaxMem=  1610612736 cpu:               0.0 elap:               0.0
 (Enter /home/sekinelabo/g16/l301.exe)
 Standard basis: 6-311+G(d) (5D, 7F)
 Ernie: Thresh=  0.10000D-02 Tol=  0.10000D-05 Strict=F.
 There are    64 symmetry adapted cartesian basis functions of A1  symmetry.
 There are     4 symmetry adapted cartesian basis functions of A2  symmetry.
 There are    28 symmetry adapted cartesian basis functions of B1  symmetry.
 There are    28 symmetry adapted cartesian basis functions of B2  symmetry.
 There are    60 symmetry adapted basis functions of A1  symmetry.
 There are     4 symmetry adapted basis functions of A2  symmetry.
 There are    28 symmetry adapted basis functions of B1  symmetry.
 There are    28 symmetry adapted basis functions of B2  symmetry.
   120 basis functions,   200 primitive gaussians,   124 cartesian basis functions
    22 alpha electrons       22 beta electrons
       nuclear repulsion energy        67.3892328003 Hartrees.
 IExCor=  402 DFT=T Ex+Corr=B3LYP ExCW=0 ScaHFX=  0.200000
 ScaDFX=  0.800000  0.720000  1.000000  0.810000 ScalE2=  1.000000  1.000000
 IRadAn=      5 IRanWt=     -1 IRanGd=            0 ICorTp=0 IEmpDi=  4
 NAtoms=    4 NActive=    4 NUniq=    4 SFac= 1.00D+00 NAtFMM=   60 NAOKFM=F Big=F
 Integral buffers will be    131072 words long.
 Raffenetti 2 integral format.
 Two-electron integral symmetry is turned on.
 Leave Link  301 at Fri Sep 29 22:51:13 2023, MaxMem=  1610612736 cpu:               0.4 elap:               0.0
 (Enter /home/sekinelabo/g16/l302.exe)
 NPDir=0 NMtPBC=     1 NCelOv=     1 NCel=       1 NClECP=     1 NCelD=      1
         NCelK=      1 NCelE2=     1 NClLst=     1 CellRange=     0.0.
 One-electron integrals computed using PRISM.
 One-electron integral symmetry used in STVInt
 NBasis=   120 RedAO= T EigKep=  2.27D-06  NBF=    60     4    28    28
 NBsUse=   120 1.00D-06 EigRej= -1.00D+00 NBFU=    60     4    28    28
 Precomputing XC quadrature grid using
 IXCGrd= 4 IRadAn=           5 IRanWt=          -1 IRanGd=           0 AccXCQ= 0.00D+00.
 Generated NRdTot=       0 NPtTot=           0 NUsed=           0 NTot=          32
 NSgBfM=   112   112   112   112   112 MxSgAt=     4 MxSgA2=     4.
 Leave Link  302 at Fri Sep 29 22:51:13 2023, MaxMem=  1610612736 cpu:               1.3 elap:               0.1
 (Enter /home/sekinelabo/g16/l303.exe)
 DipDrv:  MaxL=1.
 Leave Link  303 at Fri Sep 29 22:51:13 2023, MaxMem=  1610612736 cpu:               0.3 elap:               0.0
 (Enter /home/sekinelabo/g16/l401.exe)
 ExpMin= 7.60D-03 ExpMax= 3.62D+04 ExpMxC= 1.21D+03 IAcc=3 IRadAn=         5 AccDes= 0.00D+00
 Harris functional with IExCor=  402 and IRadAn=       5 diagonalized for initial guess.
 HarFok:  IExCor=  402 AccDes= 0.00D+00 IRadAn=         5 IDoV= 1 UseB2=F ITyADJ=14
 ICtDFT=  3500011 ScaDFX=  1.000000  1.000000  1.000000  1.000000
 FoFCou: FMM=F IPFlag=           0 FMFlag=      100000 FMFlg1=           0
         NFxFlg=           0 DoJE=T BraDBF=F KetDBF=T FulRan=T
         wScrn=  0.000000 ICntrl=       500 IOpCl=  0 I1Cent=   200000004 NGrid=           0
         NMat0=    1 NMatS0=      1 NMatT0=    0 NMatD0=    1 NMtDS0=    0 NMtDT0=    0
 Petite list used in FoFCou.
 Harris En= -649.060325530933    
 JPrj=0 DoOrth=F DoCkMO=F.
 Initial guess orbital symmetries:
       Occupied  (SG) (SG) (SG) (SG) (SG) (SG) (SG) (SG) (SG) (SG)
                 (PI) (PI) (SG) (PI) (PI) (PI) (PI) (SG) (PI) (PI)
                 (SG) (SG)
       Virtual   (SG) (SG) (PI) (PI) (SG) (PI) (PI) (PI) (PI) (SG)
                 (SG) (SG) (PI) (PI) (SG) (PI) (PI) (SG) (PI) (PI)
                 (SG) (PI) (PI) (PI) (PI) (SG) (SG) (SG) (SG) (SG)
                 (SG) (SG) (PI) (PI) (PI) (PI) (SG) (PI) (PI) (PI)
                 (PI) (SG) (SG) (SG) (SG) (SG) (SG) (PI) (PI) (PI)
                 (PI) (DLTA) (DLTA) (DLTA) (DLTA) (SG) (DLTA) (DLTA)
                 (DLTA) (DLTA) (PI) (PI) (PI) (PI) (SG) (PI) (PI)
                 (PI) (PI) (PI) (PI) (PI) (PI) (SG) (SG) (SG) (SG)
                 (SG) (SG) (SG) (SG) (SG) (PI) (PI) (PI) (PI) (PI)
                 (PI) (SG) (PI) (PI) (SG) (SG) (SG) (SG) (SG) (SG)
                 (SG)
 The electronic state of the initial guess is 1-SG.
 Leave Link  401 at Fri Sep 29 22:51:13 2023, MaxMem=  1610612736 cpu:               1.5 elap:               0.1
 (Enter /home/sekinelabo/g16/l502.exe)
 Keep R1 ints in memory in symmetry-blocked form, NReq=41601362.
 FoFCou: FMM=F IPFlag=           0 FMFlag=           0 FMFlg1=           0
         NFxFlg=           0 DoJE=F BraDBF=F KetDBF=F FulRan=T
         wScrn=  0.000000 ICntrl=       600 IOpCl=  0 I1Cent=           0 NGrid=           0
         NMat0=    1 NMatS0=   7260 NMatT0=    0 NMatD0=    1 NMtDS0=    0 NMtDT0=    0
 Petite list used in FoFCou.
 Closed shell SCF:
 Using DIIS extrapolation, IDIIS=  1040.
 NGot=  1610612736 LenX=  1603303464 LenY=  1603287647
 Requested convergence on RMS density matrix=1.00D-08 within 128 cycles.
 Requested convergence on MAX density matrix=1.00D-06.
 Requested convergence on             energy=1.00D-06.
 No special actions if energy rises.

 Cycle   1  Pass 1  IDiag  1:
 E= -649.174053346173    
 DIIS: error= 1.39D-02 at cycle   1 NSaved=   1.
 NSaved= 1 IEnMin= 1 EnMin= -649.174053346173     IErMin= 1 ErrMin= 1.39D-02
 ErrMax= 1.39D-02  0.00D+00 EMaxC= 1.00D-01 BMatC= 2.67D-02 BMatP= 2.67D-02
 IDIUse=3 WtCom= 8.61D-01 WtEn= 1.39D-01
 Coeff-Com:  0.100D+01
 Coeff-En:   0.100D+01
 Coeff:      0.100D+01
 Gap=     0.038 Goal=   None    Shift=    0.000
 GapD=    0.038 DampG=0.250 DampE=0.500 DampFc=0.2500 IDamp=-1.
 Damping current iteration by 2.50D-01
 RMSDP=1.29D-02 MaxDP=3.42D-01              OVMax= 9.75D-02

 Cycle   2  Pass 1  IDiag  1:
 E= -649.178206931073     Delta-E=       -0.004153584900 Rises=F Damp=T
 DIIS: error= 9.67D-03 at cycle   2 NSaved=   2.
 NSaved= 2 IEnMin= 2 EnMin= -649.178206931073     IErMin= 2 ErrMin= 9.67D-03
 ErrMax= 9.67D-03  0.00D+00 EMaxC= 1.00D-01 BMatC= 1.02D-02 BMatP= 2.67D-02
 IDIUse=3 WtCom= 9.03D-01 WtEn= 9.67D-02
 Coeff-Com: -0.129D+01 0.229D+01
 Coeff-En:   0.000D+00 0.100D+01
 Coeff:     -0.116D+01 0.216D+01
 Gap=     0.038 Goal=   None    Shift=    0.000
 RMSDP=1.14D-02 MaxDP=2.82D-01 DE=-4.15D-03 OVMax= 7.95D-02

 Cycle   3  Pass 1  IDiag  1:
 E= -649.185899727778     Delta-E=       -0.007692796706 Rises=F Damp=F
 DIIS: error= 2.48D-03 at cycle   3 NSaved=   3.
 NSaved= 3 IEnMin= 3 EnMin= -649.185899727778     IErMin= 3 ErrMin= 2.48D-03
 ErrMax= 2.48D-03  0.00D+00 EMaxC= 1.00D-01 BMatC= 1.65D-04 BMatP= 1.02D-02
 IDIUse=3 WtCom= 9.75D-01 WtEn= 2.48D-02
 Coeff-Com: -0.522D-01 0.115D+00 0.937D+00
 Coeff-En:   0.000D+00 0.000D+00 0.100D+01
 Coeff:     -0.509D-01 0.112D+00 0.939D+00
 Gap=     0.041 Goal=   None    Shift=    0.000
 RMSDP=8.94D-03 MaxDP=1.65D-01 DE=-7.69D-03 OVMax= 1.36D-01

 Cycle   4  Pass 1  IDiag  1:
 E= -649.182481591303     Delta-E=        0.003418136475 Rises=F Damp=F
 DIIS: error= 5.00D-03 at cycle   4 NSaved=   4.
 NSaved= 4 IEnMin= 3 EnMin= -649.185899727778     IErMin= 3 ErrMin= 2.48D-03
 ErrMax= 5.00D-03  0.00D+00 EMaxC= 1.00D-01 BMatC= 6.54D-04 BMatP= 1.65D-04
 IDIUse=3 WtCom= 1.24D-01 WtEn= 8.76D-01
 Coeff-Com:  0.388D-01-0.503D-01 0.678D+00 0.334D+00
 Coeff-En:   0.000D+00 0.000D+00 0.758D+00 0.242D+00
 Coeff:      0.481D-02-0.623D-02 0.748D+00 0.254D+00
 Gap=     0.040 Goal=   None    Shift=    0.000
 RMSDP=5.55D-03 MaxDP=1.10D-01 DE= 3.42D-03 OVMax= 6.85D-02

 Cycle   5  Pass 1  IDiag  1:
 E= -649.186651580276     Delta-E=       -0.004169988973 Rises=F Damp=F
 DIIS: error= 1.19D-03 at cycle   5 NSaved=   5.
 NSaved= 5 IEnMin= 5 EnMin= -649.186651580276     IErMin= 5 ErrMin= 1.19D-03
 ErrMax= 1.19D-03  0.00D+00 EMaxC= 1.00D-01 BMatC= 3.72D-05 BMatP= 1.65D-04
 IDIUse=3 WtCom= 9.88D-01 WtEn= 1.19D-02
 Coeff-Com: -0.108D-01 0.138D-01 0.248D+00-0.700D-01 0.819D+00
 Coeff-En:   0.000D+00 0.000D+00 0.250D+00 0.000D+00 0.750D+00
 Coeff:     -0.106D-01 0.136D-01 0.248D+00-0.692D-01 0.818D+00
 Gap=     0.039 Goal=   None    Shift=    0.000
 RMSDP=1.38D-03 MaxDP=2.83D-02 DE=-4.17D-03 OVMax= 2.03D-02

 Cycle   6  Pass 1  IDiag  1:
 E= -649.186882812243     Delta-E=       -0.000231231968 Rises=F Damp=F
 DIIS: error= 1.09D-04 at cycle   6 NSaved=   6.
 NSaved= 6 IEnMin= 6 EnMin= -649.186882812243     IErMin= 6 ErrMin= 1.09D-04
 ErrMax= 1.09D-04  0.00D+00 EMaxC= 1.00D-01 BMatC= 2.56D-07 BMatP= 3.72D-05
 IDIUse=3 WtCom= 9.99D-01 WtEn= 1.09D-03
 Coeff-Com: -0.795D-02 0.102D-01 0.944D-01-0.465D-01 0.408D+00 0.542D+00
 Coeff-En:   0.000D+00 0.000D+00 0.000D+00 0.000D+00 0.000D+00 0.100D+01
 Coeff:     -0.794D-02 0.102D-01 0.943D-01-0.465D-01 0.408D+00 0.542D+00
 Gap=     0.039 Goal=   None    Shift=    0.000
 RMSDP=1.33D-04 MaxDP=2.83D-03 DE=-2.31D-04 OVMax= 4.18D-03

 Cycle   7  Pass 1  IDiag  1:
 E= -649.186884466101     Delta-E=       -0.000001653858 Rises=F Damp=F
 DIIS: error= 4.79D-05 at cycle   7 NSaved=   7.
 NSaved= 7 IEnMin= 7 EnMin= -649.186884466101     IErMin= 7 ErrMin= 4.79D-05
 ErrMax= 4.79D-05  0.00D+00 EMaxC= 1.00D-01 BMatC= 7.66D-08 BMatP= 2.56D-07
 IDIUse=1 WtCom= 1.00D+00 WtEn= 0.00D+00
 Coeff-Com: -0.322D-02 0.418D-02 0.266D-02-0.156D-01 0.790D-01 0.367D+00
 Coeff-Com:  0.566D+00
 Coeff:     -0.322D-02 0.418D-02 0.266D-02-0.156D-01 0.790D-01 0.367D+00
 Coeff:      0.566D+00
 Gap=     0.039 Goal=   None    Shift=    0.000
 RMSDP=5.31D-05 MaxDP=9.54D-04 DE=-1.65D-06 OVMax= 1.23D-03

 Cycle   8  Pass 1  IDiag  1:
 E= -649.186884965451     Delta-E=       -0.000000499349 Rises=F Damp=F
 DIIS: error= 6.80D-06 at cycle   8 NSaved=   8.
 NSaved= 8 IEnMin= 8 EnMin= -649.186884965451     IErMin= 8 ErrMin= 6.80D-06
 ErrMax= 6.80D-06  0.00D+00 EMaxC= 1.00D-01 BMatC= 2.18D-09 BMatP= 7.66D-08
 IDIUse=1 WtCom= 1.00D+00 WtEn= 0.00D+00
 Coeff-Com: -0.703D-03 0.916D-03-0.511D-02-0.399D-02 0.639D-02 0.117D+00
 Coeff-Com:  0.197D+00 0.689D+00
 Coeff:     -0.703D-03 0.916D-03-0.511D-02-0.399D-02 0.639D-02 0.117D+00
 Coeff:      0.197D+00 0.689D+00
 Gap=     0.039 Goal=   None    Shift=    0.000
 RMSDP=1.75D-05 MaxDP=3.46D-04 DE=-4.99D-07 OVMax= 1.84D-04

 Cycle   9  Pass 1  IDiag  1:
 E= -649.186884977527     Delta-E=       -0.000000012076 Rises=F Damp=F
 DIIS: error= 1.70D-06 at cycle   9 NSaved=   9.
 NSaved= 9 IEnMin= 9 EnMin= -649.186884977527     IErMin= 9 ErrMin= 1.70D-06
 ErrMax= 1.70D-06  0.00D+00 EMaxC= 1.00D-01 BMatC= 2.34D-10 BMatP= 2.18D-09
 IDIUse=1 WtCom= 1.00D+00 WtEn= 0.00D+00
 Coeff-Com:  0.209D-03-0.275D-03-0.174D-02 0.570D-03-0.553D-02-0.147D-01
 Coeff-Com: -0.108D-01 0.169D+00 0.863D+00
 Coeff:      0.209D-03-0.275D-03-0.174D-02 0.570D-03-0.553D-02-0.147D-01
 Coeff:     -0.108D-01 0.169D+00 0.863D+00
 Gap=     0.039 Goal=   None    Shift=    0.000
 RMSDP=3.74D-06 MaxDP=7.17D-05 DE=-1.21D-08 OVMax= 5.46D-05

 Cycle  10  Pass 1  IDiag  1:
 E= -649.186884978702     Delta-E=       -0.000000001175 Rises=F Damp=F
 DIIS: error= 6.84D-07 at cycle  10 NSaved=  10.
 NSaved=10 IEnMin=10 EnMin= -649.186884978702     IErMin=10 ErrMin= 6.84D-07
 ErrMax= 6.84D-07  0.00D+00 EMaxC= 1.00D-01 BMatC= 1.76D-11 BMatP= 2.34D-10
 IDIUse=1 WtCom= 1.00D+00 WtEn= 0.00D+00
 Coeff-Com:  0.105D-03-0.138D-03-0.326D-03 0.419D-03-0.205D-02-0.112D-01
 Coeff-Com: -0.172D-01 0.345D-01 0.261D+00 0.734D+00
 Coeff:      0.105D-03-0.138D-03-0.326D-03 0.419D-03-0.205D-02-0.112D-01
 Coeff:     -0.172D-01 0.345D-01 0.261D+00 0.734D+00
 Gap=     0.039 Goal=   None    Shift=    0.000
 RMSDP=7.26D-07 MaxDP=1.82D-05 DE=-1.17D-09 OVMax= 1.20D-05

 Cycle  11  Pass 1  IDiag  1:
 E= -649.186884978813     Delta-E=       -0.000000000111 Rises=F Damp=F
 DIIS: error= 3.15D-08 at cycle  11 NSaved=  11.
 NSaved=11 IEnMin=11 EnMin= -649.186884978813     IErMin=11 ErrMin= 3.15D-08
 ErrMax= 3.15D-08  0.00D+00 EMaxC= 1.00D-01 BMatC= 2.12D-13 BMatP= 1.76D-11
 IDIUse=1 WtCom= 1.00D+00 WtEn= 0.00D+00
 Coeff-Com: -0.116D-04 0.155D-04 0.440D-04-0.242D-04 0.219D-03 0.135D-04
 Coeff-Com: -0.223D-03-0.694D-02-0.219D-01 0.647D-01 0.964D+00
 Coeff:     -0.116D-04 0.155D-04 0.440D-04-0.242D-04 0.219D-03 0.135D-04
 Coeff:     -0.223D-03-0.694D-02-0.219D-01 0.647D-01 0.964D+00
 Gap=     0.039 Goal=   None    Shift=    0.000
 RMSDP=1.33D-07 MaxDP=2.45D-06 DE=-1.11D-10 OVMax= 1.45D-06

 Cycle  12  Pass 1  IDiag  1:
 E= -649.186884978811     Delta-E=        0.000000000002 Rises=F Damp=F
 DIIS: error= 7.04D-09 at cycle  12 NSaved=  12.
 NSaved=12 IEnMin=11 EnMin= -649.186884978813     IErMin=12 ErrMin= 7.04D-09
 ErrMax= 7.04D-09  0.00D+00 EMaxC= 1.00D-01 BMatC= 8.28D-15 BMatP= 2.12D-13
 IDIUse=1 WtCom= 1.00D+00 WtEn= 0.00D+00
 Coeff-Com: -0.275D-05 0.369D-05 0.119D-04-0.108D-04 0.723D-04 0.164D-04
 Coeff-Com:  0.707D-05-0.198D-02-0.383D-02-0.604D-02 0.126D+00 0.886D+00
 Coeff:     -0.275D-05 0.369D-05 0.119D-04-0.108D-04 0.723D-04 0.164D-04
 Coeff:      0.707D-05-0.198D-02-0.383D-02-0.604D-02 0.126D+00 0.886D+00
 Gap=     0.039 Goal=   None    Shift=    0.000
 RMSDP=3.21D-08 MaxDP=7.17D-07 DE= 1.59D-12 OVMax= 3.72D-07

 Cycle  13  Pass 1  IDiag  1:
 E= -649.186884978812     Delta-E=       -0.000000000001 Rises=F Damp=F
 DIIS: error= 4.68D-09 at cycle  13 NSaved=  13.
 NSaved=13 IEnMin=11 EnMin= -649.186884978813     IErMin=13 ErrMin= 4.68D-09
 ErrMax= 4.68D-09  0.00D+00 EMaxC= 1.00D-01 BMatC= 1.97D-15 BMatP= 8.28D-15
 IDIUse=1 WtCom= 1.00D+00 WtEn= 0.00D+00
 Coeff-Com:  0.108D-06-0.123D-06 0.143D-05-0.257D-05 0.114D-04-0.210D-04
 Coeff-Com: -0.962D-04-0.386D-04 0.686D-03-0.537D-02-0.419D-01 0.320D+00
 Coeff-Com:  0.726D+00
 Coeff:      0.108D-06-0.123D-06 0.143D-05-0.257D-05 0.114D-04-0.210D-04
 Coeff:     -0.962D-04-0.386D-04 0.686D-03-0.537D-02-0.419D-01 0.320D+00
 Coeff:      0.726D+00
 Gap=     0.039 Goal=   None    Shift=    0.000
 RMSDP=1.48D-08 MaxDP=3.31D-07 DE=-1.25D-12 OVMax= 1.86D-07

 Cycle  14  Pass 1  IDiag  1:
 E= -649.186884978813     Delta-E=       -0.000000000001 Rises=F Damp=F
 DIIS: error= 5.08D-10 at cycle  14 NSaved=  14.
 NSaved=14 IEnMin=14 EnMin= -649.186884978813     IErMin=14 ErrMin= 5.08D-10
 ErrMax= 5.08D-10  0.00D+00 EMaxC= 1.00D-01 BMatC= 1.60D-17 BMatP= 1.97D-15
 IDIUse=1 WtCom= 1.00D+00 WtEn= 0.00D+00
 Coeff-Com: -0.386D-07 0.512D-07 0.265D-07-0.233D-06 0.128D-05-0.426D-05
 Coeff-Com: -0.734D-05 0.349D-04 0.720D-04 0.389D-03-0.432D-02-0.116D-01
 Coeff-Com:  0.945D-02 0.101D+01
 Coeff:     -0.386D-07 0.512D-07 0.265D-07-0.233D-06 0.128D-05-0.426D-05
 Coeff:     -0.734D-05 0.349D-04 0.720D-04 0.389D-03-0.432D-02-0.116D-01
 Coeff:      0.945D-02 0.101D+01
 Gap=     0.039 Goal=   None    Shift=    0.000
 RMSDP=1.81D-09 MaxDP=3.50D-08 DE=-5.68D-13 OVMax= 1.78D-08

 SCF Done:  E(RB3LYP) =  -649.186884979     A.U. after   14 cycles
            NFock= 14  Conv=0.18D-08     -V/T= 2.0030
 KE= 6.472206867250D+02 PE=-1.693721337398D+03 EE= 3.299245328943D+02
 Leave Link  502 at Fri Sep 29 22:51:14 2023, MaxMem=  1610612736 cpu:              11.8 elap:               0.8
 (Enter /home/sekinelabo/g16/l601.exe)
 Copying SCF densities to generalized density rwf, IOpCl= 0 IROHF=0.

 **********************************************************************

            Population analysis using the SCF Density.

 **********************************************************************

 Orbital symmetries:
       Occupied  (SG) (SG) (SG) (SG) (SG) (SG) (SG) (SG) (PI) (PI)
                 (SG) (PI) (PI) (SG) (PI) (PI) (SG) (PI) (PI) (SG)
                 (SG) (SG)
       Virtual   (SG) (SG) (PI) (PI) (SG) (PI) (PI) (PI) (PI) (SG)
                 (SG) (SG) (SG) (PI) (PI) (PI) (PI) (SG) (SG) (PI)
                 (PI) (PI) (PI) (SG) (PI) (PI) (SG) (SG) (SG) (SG)
                 (SG) (SG) (PI) (PI) (PI) (PI) (SG) (PI) (PI) (PI)
                 (PI) (SG) (SG) (SG) (SG) (SG) (SG) (PI) (PI) (PI)
                 (PI) (DLTA) (DLTA) (DLTA) (DLTA) (SG) (DLTA) (DLTA)
                 (DLTA) (DLTA) (PI) (PI) (PI) (PI) (SG) (PI) (PI)
                 (PI) (PI) (PI) (PI) (PI) (PI) (SG) (SG) (SG) (SG)
                 (SG) (SG) (SG) (SG) (SG) (PI) (PI) (PI) (PI) (PI)
                 (PI) (SG) (PI) (PI) (SG) (SG) (SG) (SG) (SG) (SG)
                 (SG)
 The electronic state is 1-SG.
 Alpha  occ. eigenvalues --  -38.45701 -38.45525 -38.45199 -38.45014  -2.21400
 Alpha  occ. eigenvalues --   -2.21232  -2.20897  -2.20720  -1.15077  -1.15077
 Alpha  occ. eigenvalues --   -1.15018  -1.14908  -1.14908  -1.14851  -1.14585
 Alpha  occ. eigenvalues --   -1.14585  -1.14505  -1.14407  -1.14407  -1.14329
 Alpha  occ. eigenvalues --   -0.13302  -0.12121
 Alpha virt. eigenvalues --   -0.08179  -0.05436  -0.02690  -0.02690  -0.02077
 Alpha virt. eigenvalues --   -0.01948  -0.01948  -0.00262  -0.00262  -0.00105
 Alpha virt. eigenvalues --    0.00139   0.00839   0.00982   0.01177   0.01177
 Alpha virt. eigenvalues --    0.01291   0.01291   0.01818   0.02219   0.02227
 Alpha virt. eigenvalues --    0.02227   0.02431   0.02431   0.03202   0.03411
 Alpha virt. eigenvalues --    0.03411   0.04117   0.05100   0.05184   0.06216
 Alpha virt. eigenvalues --    0.07101   0.07373   0.07529   0.07529   0.08100
 Alpha virt. eigenvalues --    0.08100   0.08994   0.09201   0.09201   0.10029
 Alpha virt. eigenvalues --    0.10029   0.10708   0.13340   0.14483   0.15228
 Alpha virt. eigenvalues --    0.16126   0.30050   0.30323   0.30323   0.32278
 Alpha virt. eigenvalues --    0.32278   0.34239   0.34239   0.34379   0.34379
 Alpha virt. eigenvalues --    0.35310   0.35467   0.35467   0.35835   0.35835
 Alpha virt. eigenvalues --    0.38465   0.38465   0.40430   0.40430   0.42882
 Alpha virt. eigenvalues --    0.43038   0.43038   0.43554   0.43554   0.44549
 Alpha virt. eigenvalues --    0.44549   0.45267   0.45267   0.46610   0.47742
 Alpha virt. eigenvalues --    0.49760   0.51908   0.52822   1.98362   2.05813
 Alpha virt. eigenvalues --    2.08146   2.09608   4.43264   4.43264   4.43456
 Alpha virt. eigenvalues --    4.43456   4.43881   4.43881   4.44536   4.44973
 Alpha virt. eigenvalues --    4.44973   4.45794   4.46907   4.50584  96.16791
 Alpha virt. eigenvalues --   96.26046  96.28507  96.30160
          Condensed to atoms (all electrons):
               1          2          3          4
     1  Na  11.581380   0.794968  -1.514215  -0.341981
     2  Na   0.794968  14.423007  -1.896298  -1.864459
     3  Na  -1.514215  -1.896298  14.290239   0.681633
     4  Na  -0.341981  -1.864459   0.681633  11.986078
 Mulliken charges:
               1
     1  Na   0.479848
     2  Na  -0.457218
     3  Na  -0.561359
     4  Na   0.538729
 Sum of Mulliken charges =  -0.00000
 Mulliken charges with hydrogens summed into heavy atoms:
               1
     1  Na   0.479848
     2  Na  -0.457218
     3  Na  -0.561359
     4  Na   0.538729
 Electronic spatial extent (au):  <R**2>=           3458.0248
 Charge=             -0.0000 electrons
 Dipole moment (field-independent basis, Debye):
    X=              0.0000    Y=              0.0000    Z=              0.0023  Tot=              0.0023
 Quadrupole moment (field-independent basis, Debye-Ang):
   XX=            -45.4800   YY=            -45.4800   ZZ=            -10.8405
   XY=              0.0000   XZ=              0.0000   YZ=              0.0000
 Traceless Quadrupole moment (field-independent basis, Debye-Ang):
   XX=            -11.5465   YY=            -11.5465   ZZ=             23.0930
   XY=              0.0000   XZ=              0.0000   YZ=              0.0000
 Octapole moment (field-independent basis, Debye-Ang**2):
  XXX=              0.0000  YYY=              0.0000  ZZZ=              1.3441  XYY=              0.0000
  XXY=              0.0000  XXZ=             -0.5427  XZZ=              0.0000  YZZ=              0.0000
  YYZ=             -0.5427  XYZ=              0.0000
 Hexadecapole moment (field-independent basis, Debye-Ang**3):
 XXXX=           -199.6296 YYYY=           -199.6296 ZZZZ=          -2721.2692 XXXY=              0.0000
 XXXZ=              0.0000 YYYX=              0.0000 YYYZ=              0.0000 ZZZX=              0.0000
 ZZZY=              0.0000 XXYY=            -66.5432 XXZZ=           -995.4964 YYZZ=           -995.4964
 XXYZ=              0.0000 YYXZ=              0.0000 ZZXY=              0.0000
 N-N= 6.738923280032D+01 E-N=-1.693721337430D+03  KE= 6.472206867250D+02
 Symmetry A1   KE= 5.522667900876D+02
 Symmetry A2   KE= 1.126239264517D-52
 Symmetry B1   KE= 4.747694831872D+01
 Symmetry B2   KE= 4.747694831872D+01
 No NMR shielding tensors so no spin-rotation constants.
 Leave Link  601 at Fri Sep 29 22:51:14 2023, MaxMem=  1610612736 cpu:               1.0 elap:               0.1
 (Enter /home/sekinelabo/g16/l701.exe)
 ... and contract with generalized density number  0.
 Compute integral first derivatives.
 Leave Link  701 at Fri Sep 29 22:51:14 2023, MaxMem=  1610612736 cpu:               1.4 elap:               0.1
 (Enter /home/sekinelabo/g16/l702.exe)
 L702 exits ... SP integral derivatives will be done elsewhere.
 Leave Link  702 at Fri Sep 29 22:51:14 2023, MaxMem=  1610612736 cpu:               0.5 elap:               0.0
 (Enter /home/sekinelabo/g16/l703.exe)
 Integral derivatives from FoFJK, PRISM(SPDF).
 Compute integral first derivatives, UseDBF=F ICtDFT=           0.
 Calling FoFJK, ICntrl=      2127 FMM=F ISym2X=1 I1Cent= 0 IOpClX= 0 NMat=1 NMatS=1 NMatT=0.
 FoFJK:  IHMeth= 1 ICntrl=    2127 DoSepK=F KAlg= 0 I1Cent=           0 FoldK=F
 IRaf=         0 NMat=       1 IRICut=       1 DoRegI=T DoRafI=F ISym2E= 1 IDoP0=0 IntGTp=1.
 FoFCou: FMM=F IPFlag=           0 FMFlag=      100000 FMFlg1=         800
         NFxFlg=           0 DoJE=F BraDBF=F KetDBF=F FulRan=T
         wScrn=  0.000000 ICntrl=      2127 IOpCl=  0 I1Cent=           0 NGrid=           0
         NMat0=    1 NMatS0=      1 NMatT0=    0 NMatD0=    1 NMtDS0=    0 NMtDT0=    0
 Petite list used in FoFCou.
 Leave Link  703 at Fri Sep 29 22:51:14 2023, MaxMem=  1610612736 cpu:               3.9 elap:               0.2
 (Enter /home/sekinelabo/g16/l716.exe)
 Dipole        = 0.00000000D+00 0.00000000D+00 9.09168674D-04
 ***** Axes restored to original set *****
 -------------------------------------------------------------------
 Center     Atomic                   Forces (Hartrees/Bohr)
 Number     Number              X              Y              Z
 -------------------------------------------------------------------
      1       11          -0.000000000   -0.000000000    0.007559679
      2       11          -0.000000000   -0.000000000   -0.005607591
      3       11          -0.000000000   -0.000000000    0.005263995
      4       11          -0.000000000   -0.000000000   -0.007216082
 -------------------------------------------------------------------
 Cartesian Forces:  Max     0.007559679 RMS     0.003745834
 Z-matrix is all fixed cartesians, so copy forces.
 Force constants in Cartesian coordinates: 
                1             2             3             4             5 
      1  0.100000D+01
      2  0.000000D+00  0.100000D+01
      3  0.000000D+00  0.000000D+00  0.105497D-01
      4  0.000000D+00  0.000000D+00  0.000000D+00  0.100000D+01
      5  0.000000D+00  0.000000D+00  0.000000D+00  0.000000D+00  0.100000D+01
      6  0.000000D+00  0.000000D+00 -0.105497D-01  0.000000D+00  0.000000D+00
      7  0.000000D+00  0.000000D+00  0.000000D+00  0.000000D+00  0.000000D+00
      8  0.000000D+00  0.000000D+00  0.000000D+00  0.000000D+00  0.000000D+00
      9  0.000000D+00  0.000000D+00  0.000000D+00  0.000000D+00  0.000000D+00
     10  0.000000D+00  0.000000D+00  0.000000D+00  0.000000D+00  0.000000D+00
     11  0.000000D+00  0.000000D+00  0.000000D+00  0.000000D+00  0.000000D+00
     12  0.000000D+00  0.000000D+00  0.000000D+00  0.000000D+00  0.000000D+00
                6             7             8             9            10 
      6  0.105497D-01
      7  0.000000D+00  0.100000D+01
      8  0.000000D+00  0.000000D+00  0.100000D+01
      9  0.000000D+00  0.000000D+00  0.000000D+00  0.125424D-01
     10  0.000000D+00  0.000000D+00  0.000000D+00  0.000000D+00  0.100000D+01
     11  0.000000D+00  0.000000D+00  0.000000D+00  0.000000D+00  0.000000D+00
     12  0.000000D+00  0.000000D+00  0.000000D+00 -0.125424D-01  0.000000D+00
               11            12 
     11  0.100000D+01
     12  0.000000D+00  0.125424D-01
 Leave Link  716 at Fri Sep 29 22:51:14 2023, MaxMem=  1610612736 cpu:               0.3 elap:               0.0
 (Enter /home/sekinelabo/g16/l103.exe)

 GradGradGradGradGradGradGradGradGradGradGradGradGradGradGradGradGradGrad
 Berny optimization.
 Search for a local minimum.
 Step number   1 out of a maximum of    2
 All quantities printed in internal units (Hartrees-Bohrs-Radians)
 Second derivative matrix not updated -- first step.
 The second derivative matrix:
                          X1        Y1        Z1        X2        Y2
           X1           1.00000
           Y1           0.00000   1.00000
           Z1           0.00000   0.00000   0.01055
           X2           0.00000   0.00000   0.00000   1.00000
           Y2           0.00000   0.00000   0.00000   0.00000   1.00000
           Z2           0.00000   0.00000  -0.01055   0.00000   0.00000
           X3           0.00000   0.00000   0.00000   0.00000   0.00000
           Y3           0.00000   0.00000   0.00000   0.00000   0.00000
           Z3           0.00000   0.00000   0.00000   0.00000   0.00000
           X4           0.00000   0.00000   0.00000   0.00000   0.00000
           Y4           0.00000   0.00000   0.00000   0.00000   0.00000
           Z4           0.00000   0.00000   0.00000   0.00000   0.00000
                          Z2        X3        Y3        Z3        X4
           Z2           0.01055
           X3           0.00000   1.00000
           Y3           0.00000   0.00000   1.00000
           Z3           0.00000   0.00000   0.00000   0.01254
           X4           0.00000   0.00000   0.00000   0.00000   1.00000
           Y4           0.00000   0.00000   0.00000   0.00000   0.00000
           Z4           0.00000   0.00000   0.00000  -0.01254   0.00000
                          Y4        Z4
           Y4           1.00000
           Z4           0.00000   0.01254
 ITU=  0
     Eigenvalues ---    0.00000   0.02110   0.02508   1.00000   1.00000
     Eigenvalues ---    1.00000   1.00000
 Eigenvalue     1 is   2.22D-16 Eigenvector:
                          Z2        Z3        Z4        Z1        Y3
   1                    0.50000  -0.50000  -0.50000   0.50000  -0.00000
                          Y4        Y2        X3        X4        X2
   1                    0.00000   0.00000  -0.00000   0.00000   0.00000
 Quadratic step=1.953D+01 exceeds max=3.000D-01 adjusted using Lamda=-2.189D-02.
 Angle between NR and scaled steps=  71.14 degrees.
 Angle between quadratic step and forces=   8.90 degrees.
 ClnCor:  largest displacement from symmetrization is 4.62D-17 for atom     3.
 Linear search not attempted -- first point.
 ClnCor:  largest displacement from symmetrization is 2.78D-16 for atom     1.
 B after Tr=     0.000000    0.000000    0.000000
         Rot=    1.000000    0.000000    0.000000    0.000000 Ang=   0.00 deg.
 Variable       Old X    -DE/DX   Delta X   Delta X   Delta X     New X
                                 (Linear)    (Quad)   (Total)
    X1        0.00000  -0.00000   0.00000  -0.00000   0.00000   0.00000
    Y1        0.00000  -0.00000   0.00000  -0.00000   0.00000   0.00000
    Z1        0.00000   0.00756   0.00000   0.19751   0.19751   0.19751
    X2        0.00000  -0.00000   0.00000   0.00000   0.00000   0.00000
    Y2        0.00000  -0.00000   0.00000   0.00000   0.00000   0.00000
    Z2        7.54576  -0.00561   0.00000  -0.10875  -0.10875   7.43700
    X3        0.00000  -0.00000   0.00000  -0.00000   0.00000   0.00000
    Y3        0.00000  -0.00000   0.00000  -0.00000   0.00000   0.00000
    Z3       16.05368   0.00526   0.00000   0.08845   0.08845  16.14213
    X4        0.00000  -0.00000   0.00000   0.00000   0.00000   0.00000
    Y4        0.00000  -0.00000   0.00000   0.00000   0.00000   0.00000
    Z4       23.29246  -0.00722   0.00000  -0.17720  -0.17720  23.11526
         Item               Value     Threshold  Converged?
 Maximum Force            0.007560     0.000450     NO 
 RMS     Force            0.003746     0.000300     NO 
 Maximum Displacement     0.197506     0.001800     NO 
 RMS     Displacement     0.086631     0.001200     NO 
 Predicted change in Energy=-2.909904D-03
 GradGradGradGradGradGradGradGradGradGradGradGradGradGradGradGradGradGrad

 Leave Link  103 at Fri Sep 29 22:51:14 2023, MaxMem=  1610612736 cpu:               0.1 elap:               0.0
 (Enter /home/sekinelabo/g16/l9999.exe)
 1\1\GINC-SEKINELABO-XA7R-R37\Force\RB3LYP\6-311+G(d)\Na4\SEKINELABO\29
 -Sep-2023\0\\#p B3LYP/6-311+g(d) force\\\0,1\Na,0.,0.,0.\Na,0.,0.,3.99
 3042849\Na,0.,0.,8.4952419731\Na,0.,0.,12.3258399864\\Version=ES64L-G1
 6RevB.01\State=1-SG\HF=-649.186885\RMSD=1.805e-09\RMSF=3.746e-03\Dipol
 e=0.,0.,-0.0009092\Quadrupole=-8.5845351,-8.5845351,17.1690703,0.,0.,0
 .\PG=C*V [C*(Na1Na1Na1Na1)]\\@


 I DON'T PRETEND TO UNDERSTAND THE UNIVERSE --
 IT'S A GREAT DEAL BIGGER THAN I AM.
       -- ATTR. TO WILLIAM ALLINGHAM (1828-89)
 Job cpu time:       0 days  0 hours  0 minutes 24.9 seconds.
 Elapsed time:       0 days  0 hours  0 minutes  1.6 seconds.
 File lengths (MBytes):  RWF=     11 Int=      0 D2E=      0 Chk=      2 Scr=      1
 Normal termination of Gaussian 16 at Fri Sep 29 22:51:14 2023.
 Initial command:
 /home/sekinelabo/g16/l1.exe "/home/sekinelabo/g16temp/Gau-87458.inp" -scrdir="/home/sekinelabo/g16temp/"
 Entering Link 1 = /home/sekinelabo/g16/l1.exe PID=     87702.
  
 Copyright (c) 1988-2017, Gaussian, Inc.  All Rights Reserved.
  
 This is part of the Gaussian(R) 16 program.  It is based on
 the Gaussian(R) 09 system (copyright 2009, Gaussian, Inc.),
 the Gaussian(R) 03 system (copyright 2003, Gaussian, Inc.),
 the Gaussian(R) 98 system (copyright 1998, Gaussian, Inc.),
 the Gaussian(R) 94 system (copyright 1995, Gaussian, Inc.),
 the Gaussian 92(TM) system (copyright 1992, Gaussian, Inc.),
 the Gaussian 90(TM) system (copyright 1990, Gaussian, Inc.),
 the Gaussian 88(TM) system (copyright 1988, Gaussian, Inc.),
 the Gaussian 86(TM) system (copyright 1986, Carnegie Mellon
 University), and the Gaussian 82(TM) system (copyright 1983,
 Carnegie Mellon University). Gaussian is a federally registered
 trademark of Gaussian, Inc.
  
 This software contains proprietary and confidential information,
 including trade secrets, belonging to Gaussian, Inc.
  
 This software is provided under written license and may be
 used, copied, transmitted, or stored only in accord with that
 written license.
  
 The following legend is applicable only to US Government
 contracts under FAR:
  
                    RESTRICTED RIGHTS LEGEND
  
 Use, reproduction and disclosure by the US Government is
 subject to restrictions as set forth in subparagraphs (a)
 and (c) of the Commercial Computer Software - Restricted
 Rights clause in FAR 52.227-19.
  
 Gaussian, Inc.
 340 Quinnipiac St., Bldg. 40, Wallingford CT 06492
  
  
 ---------------------------------------------------------------
 Warning -- This program may not be used in any manner that
 competes with the business of Gaussian, Inc. or will provide
 assistance to any competitor of Gaussian, Inc.  The licensee
 of this program is prohibited from giving any competitor of
 Gaussian, Inc. access to this program.  By using this program,
 the user acknowledges that Gaussian, Inc. is engaged in the
 business of creating and licensing software in the field of
 computational chemistry and represents and warrants to the
 licensee that it is not a competitor of Gaussian, Inc. and that
 it will not use this program in any manner prohibited above.
 ---------------------------------------------------------------
  

 Cite this work as:
 Gaussian 16, Revision B.01,
 M. J. Frisch, G. W. Trucks, H. B. Schlegel, G. E. Scuseria, 
 M. A. Robb, J. R. Cheeseman, G. Scalmani, V. Barone, 
 G. A. Petersson, H. Nakatsuji, X. Li, M. Caricato, A. V. Marenich, 
 J. Bloino, B. G. Janesko, R. Gomperts, B. Mennucci, H. P. Hratchian, 
 J. V. Ortiz, A. F. Izmaylov, J. L. Sonnenberg, D. Williams-Young, 
 F. Ding, F. Lipparini, F. Egidi, J. Goings, B. Peng, A. Petrone, 
 T. Henderson, D. Ranasinghe, V. G. Zakrzewski, J. Gao, N. Rega, 
 G. Zheng, W. Liang, M. Hada, M. Ehara, K. Toyota, R. Fukuda, 
 J. Hasegawa, M. Ishida, T. Nakajima, Y. Honda, O. Kitao, H. Nakai, 
 T. Vreven, K. Throssell, J. A. Montgomery, Jr., J. E. Peralta, 
 F. Ogliaro, M. J. Bearpark, J. J. Heyd, E. N. Brothers, K. N. Kudin, 
 V. N. Staroverov, T. A. Keith, R. Kobayashi, J. Normand, 
 K. Raghavachari, A. P. Rendell, J. C. Burant, S. S. Iyengar, 
 J. Tomasi, M. Cossi, J. M. Millam, M. Klene, C. Adamo, R. Cammi, 
 J. W. Ochterski, R. L. Martin, K. Morokuma, O. Farkas, 
 J. B. Foresman, and D. J. Fox, Gaussian, Inc., Wallingford CT, 2016.
 
 ******************************************
 Gaussian 16:  ES64L-G16RevB.01 20-Dec-2017
                29-Sep-2023 
 ******************************************
 %NProcShared=16
 Will use up to   16 processors via shared memory.
 %mem=12GB
 %Chk=checkpoint.chk
 -------------------------
 #p B3LYP/6-311+g(d) force
 -------------------------
 1/10=7,30=1,38=1/1,3;
 2/12=2,17=6,18=5,40=1/2;
 3/5=4,6=6,7=11,11=2,25=1,30=1,71=1,74=-5/1,2,3;
 4//1;
 5/5=2,38=5/2;
 6/7=2,8=2,9=2,10=2,28=1/1;
 7/29=1/1,2,3,16;
 1/10=7,30=1/3;
 99//99;
 Leave Link    1 at Fri Sep 29 22:51:14 2023, MaxMem=  1610612736 cpu:               0.2 elap:               0.0
 (Enter /home/sekinelabo/g16/l101.exe)


 Symbolic Z-matrix:
 Charge =  0 Multiplicity = 1
 Na                    0.        0.        0. 
 Na                    0.        0.        2.58502 
 Na                    0.        0.        8.03863 
 Na                    0.        0.        11.63964 
 
 ITRead=  0  0  0  0
 MicOpt= -1 -1 -1 -1
 NAtoms=      4 NQM=        4 NQMF=       0 NMMI=      0 NMMIF=      0
                NMic=       0 NMicF=      0.
                    Isotopes and Nuclear Properties:
 (Nuclear quadrupole moments (NQMom) in fm**2, nuclear magnetic moments (NMagM)
  in nuclear magnetons)

  Atom         1           2           3           4
 IAtWgt=          23          23          23          23
 AtmWgt=  22.9897697  22.9897697  22.9897697  22.9897697
 NucSpn=           3           3           3           3
 AtZEff=  -0.0000000  -0.0000000  -0.0000000  -0.0000000
 NQMom=   10.4000000  10.4000000  10.4000000  10.4000000
 NMagM=    2.2175200   2.2175200   2.2175200   2.2175200
 AtZNuc=  11.0000000  11.0000000  11.0000000  11.0000000
 Leave Link  101 at Fri Sep 29 22:51:14 2023, MaxMem=  1610612736 cpu:               1.7 elap:               0.1
 (Enter /home/sekinelabo/g16/l103.exe)

 GradGradGradGradGradGradGradGradGradGradGradGradGradGradGradGradGradGrad
 Berny optimization.
 Initialization pass.
 Trust Radius=3.00D-01 FncErr=1.00D-07 GrdErr=1.00D-07 EigMax=2.50D+02 EigMin=1.00D-04
 Number of steps in this run=      2 maximum allowed number of steps=      2.
 GradGradGradGradGradGradGradGradGradGradGradGradGradGradGradGradGradGrad

 Leave Link  103 at Fri Sep 29 22:51:14 2023, MaxMem=  1610612736 cpu:               0.2 elap:               0.0
 (Enter /home/sekinelabo/g16/l202.exe)
                          Input orientation:                          
 ---------------------------------------------------------------------
 Center     Atomic      Atomic             Coordinates (Angstroms)
 Number     Number       Type             X           Y           Z
 ---------------------------------------------------------------------
      1         11           0        0.000000    0.000000    0.000000
      2         11           0        0.000000    0.000000    2.585021
      3         11           0        0.000000    0.000000    8.038631
      4         11           0        0.000000    0.000000   11.639644
 ---------------------------------------------------------------------
                    Distance matrix (angstroms):
                    1          2          3          4
     1  Na   0.000000
     2  Na   2.585021   0.000000
     3  Na   8.038631   5.453610   0.000000
     4  Na  11.639644   9.054623   3.601013   0.000000
 Stoichiometry    Na4
 Framework group  C*V[C*(NaNaNaNa)]
 Deg. of freedom     3
 Full point group                 C*V     NOp   4
 Largest Abelian subgroup         C2V     NOp   4
 Largest concise Abelian subgroup C1      NOp   1
                         Standard orientation:                         
 ---------------------------------------------------------------------
 Center     Atomic      Atomic             Coordinates (Angstroms)
 Number     Number       Type             X           Y           Z
 ---------------------------------------------------------------------
      1         11           0        0.000000    0.000000   -5.565824
      2         11           0        0.000000    0.000000   -2.980803
      3         11           0        0.000000    0.000000    2.472807
      4         11           0        0.000000    0.000000    6.073820
 ---------------------------------------------------------------------
 Rotational constants (GHZ):           0.0000000           0.2652694           0.2652694
 Leave Link  202 at Fri Sep 29 22:51:14 2023, MaxMem=  1610612736 cpu:               0.0 elap:               0.0
 (Enter /home/sekinelabo/g16/l301.exe)
 Standard basis: 6-311+G(d) (5D, 7F)
 Ernie: Thresh=  0.10000D-02 Tol=  0.10000D-05 Strict=F.
 There are    64 symmetry adapted cartesian basis functions of A1  symmetry.
 There are     4 symmetry adapted cartesian basis functions of A2  symmetry.
 There are    28 symmetry adapted cartesian basis functions of B1  symmetry.
 There are    28 symmetry adapted cartesian basis functions of B2  symmetry.
 There are    60 symmetry adapted basis functions of A1  symmetry.
 There are     4 symmetry adapted basis functions of A2  symmetry.
 There are    28 symmetry adapted basis functions of B1  symmetry.
 There are    28 symmetry adapted basis functions of B2  symmetry.
   120 basis functions,   200 primitive gaussians,   124 cartesian basis functions
    22 alpha electrons       22 beta electrons
       nuclear repulsion energy        74.8299403780 Hartrees.
 IExCor=  402 DFT=T Ex+Corr=B3LYP ExCW=0 ScaHFX=  0.200000
 ScaDFX=  0.800000  0.720000  1.000000  0.810000 ScalE2=  1.000000  1.000000
 IRadAn=      5 IRanWt=     -1 IRanGd=            0 ICorTp=0 IEmpDi=  4
 NAtoms=    4 NActive=    4 NUniq=    4 SFac= 1.00D+00 NAtFMM=   60 NAOKFM=F Big=F
 Integral buffers will be    131072 words long.
 Raffenetti 2 integral format.
 Two-electron integral symmetry is turned on.
 Leave Link  301 at Fri Sep 29 22:51:15 2023, MaxMem=  1610612736 cpu:               0.4 elap:               0.0
 (Enter /home/sekinelabo/g16/l302.exe)
 NPDir=0 NMtPBC=     1 NCelOv=     1 NCel=       1 NClECP=     1 NCelD=      1
         NCelK=      1 NCelE2=     1 NClLst=     1 CellRange=     0.0.
 One-electron integrals computed using PRISM.
 One-electron integral symmetry used in STVInt
 NBasis=   120 RedAO= T EigKep=  1.10D-05  NBF=    60     4    28    28
 NBsUse=   119 1.00D-06 EigRej=  5.16D-07 NBFU=    59     4    28    28
 Precomputing XC quadrature grid using
 IXCGrd= 4 IRadAn=           5 IRanWt=          -1 IRanGd=           0 AccXCQ= 0.00D+00.
 Generated NRdTot=       0 NPtTot=           0 NUsed=           0 NTot=          32
 NSgBfM=   111   111   111   111   111 MxSgAt=     4 MxSgA2=     4.
 Leave Link  302 at Fri Sep 29 22:51:15 2023, MaxMem=  1610612736 cpu:               1.3 elap:               0.1
 (Enter /home/sekinelabo/g16/l303.exe)
 DipDrv:  MaxL=1.
 Leave Link  303 at Fri Sep 29 22:51:15 2023, MaxMem=  1610612736 cpu:               0.3 elap:               0.0
 (Enter /home/sekinelabo/g16/l401.exe)
 ExpMin= 7.60D-03 ExpMax= 3.62D+04 ExpMxC= 1.21D+03 IAcc=3 IRadAn=         5 AccDes= 0.00D+00
 Harris functional with IExCor=  402 and IRadAn=       5 diagonalized for initial guess.
 HarFok:  IExCor=  402 AccDes= 0.00D+00 IRadAn=         5 IDoV= 1 UseB2=F ITyADJ=14
 ICtDFT=  3500011 ScaDFX=  1.000000  1.000000  1.000000  1.000000
 FoFCou: FMM=F IPFlag=           0 FMFlag=      100000 FMFlg1=           0
         NFxFlg=           0 DoJE=T BraDBF=F KetDBF=T FulRan=T
         wScrn=  0.000000 ICntrl=       500 IOpCl=  0 I1Cent=   200000004 NGrid=           0
         NMat0=    1 NMatS0=      1 NMatT0=    0 NMatD0=    1 NMtDS0=    0 NMtDT0=    0
 Petite list used in FoFCou.
 Harris En= -649.064580440010    
 JPrj=0 DoOrth=F DoCkMO=F.
 Initial guess orbital symmetries:
       Occupied  (SG) (SG) (SG) (SG) (SG) (SG) (SG) (SG) (SG) (PI)
                 (PI) (PI) (PI) (SG) (SG) (PI) (PI) (SG) (PI) (PI)
                 (SG) (SG)
       Virtual   (SG) (SG) (PI) (PI) (PI) (PI) (SG) (SG) (PI) (PI)
                 (SG) (PI) (PI) (SG) (SG) (PI) (PI) (SG) (PI) (PI)
                 (SG) (PI) (PI) (PI) (PI) (SG) (SG) (SG) (SG) (PI)
                 (PI) (SG) (SG) (PI) (PI) (SG) (PI) (PI) (PI) (PI)
                 (SG) (SG) (SG) (SG) (SG) (PI) (PI) (DLTA) (DLTA)
                 (PI) (PI) (SG) (DLTA) (DLTA) (SG) (DLTA) (DLTA)
                 (DLTA) (DLTA) (PI) (PI) (PI) (PI) (SG) (PI) (PI)
                 (PI) (PI) (PI) (PI) (SG) (SG) (SG) (PI) (PI) (SG)
                 (SG) (SG) (SG) (SG) (SG) (PI) (PI) (PI) (PI) (PI)
                 (PI) (SG) (SG) (PI) (PI) (SG) (SG) (SG) (SG) (SG)
                 (SG)
 The electronic state of the initial guess is 1-SG.
 Leave Link  401 at Fri Sep 29 22:51:15 2023, MaxMem=  1610612736 cpu:               1.5 elap:               0.1
 (Enter /home/sekinelabo/g16/l502.exe)
 Keep R1 ints in memory in symmetry-blocked form, NReq=41601362.
 FoFCou: FMM=F IPFlag=           0 FMFlag=           0 FMFlg1=           0
         NFxFlg=           0 DoJE=F BraDBF=F KetDBF=F FulRan=T
         wScrn=  0.000000 ICntrl=       600 IOpCl=  0 I1Cent=           0 NGrid=           0
         NMat0=    1 NMatS0=   7260 NMatT0=    0 NMatD0=    1 NMtDS0=    0 NMtDT0=    0
 Petite list used in FoFCou.
 Closed shell SCF:
 Using DIIS extrapolation, IDIIS=  1040.
 NGot=  1610612736 LenX=  1603303464 LenY=  1603287647
 Requested convergence on RMS density matrix=1.00D-08 within 128 cycles.
 Requested convergence on MAX density matrix=1.00D-06.
 Requested convergence on             energy=1.00D-06.
 No special actions if energy rises.

 Cycle   1  Pass 1  IDiag  1:
 E= -649.178347424767    
 DIIS: error= 1.67D-02 at cycle   1 NSaved=   1.
 NSaved= 1 IEnMin= 1 EnMin= -649.178347424767     IErMin= 1 ErrMin= 1.67D-02
 ErrMax= 1.67D-02  0.00D+00 EMaxC= 1.00D-01 BMatC= 2.62D-02 BMatP= 2.62D-02
 IDIUse=3 WtCom= 8.33D-01 WtEn= 1.67D-01
 Coeff-Com:  0.100D+01
 Coeff-En:   0.100D+01
 Coeff:      0.100D+01
 Gap=     0.054 Goal=   None    Shift=    0.000
 GapD=    0.054 DampG=0.500 DampE=0.500 DampFc=0.2500 IDamp=-1.
 Damping current iteration by 2.50D-01
 RMSDP=1.42D-02 MaxDP=6.86D-01              OVMax= 7.34D-02

 Cycle   2  Pass 1  IDiag  1:
 E= -649.182516991109     Delta-E=       -0.004169566342 Rises=F Damp=T
 DIIS: error= 1.17D-02 at cycle   2 NSaved=   2.
 NSaved= 2 IEnMin= 2 EnMin= -649.182516991109     IErMin= 2 ErrMin= 1.17D-02
 ErrMax= 1.17D-02  0.00D+00 EMaxC= 1.00D-01 BMatC= 1.02D-02 BMatP= 2.62D-02
 IDIUse=3 WtCom= 8.83D-01 WtEn= 1.17D-01
 Coeff-Com: -0.133D+01 0.233D+01
 Coeff-En:   0.000D+00 0.100D+01
 Coeff:     -0.117D+01 0.217D+01
 Gap=     0.057 Goal=   None    Shift=    0.000
 RMSDP=9.00D-03 MaxDP=4.19D-01 DE=-4.17D-03 OVMax= 1.93D-02

 Cycle   3  Pass 1  IDiag  1:
 E= -649.191308346154     Delta-E=       -0.008791355045 Rises=F Damp=F
 DIIS: error= 4.01D-04 at cycle   3 NSaved=   3.
 NSaved= 3 IEnMin= 3 EnMin= -649.191308346154     IErMin= 3 ErrMin= 4.01D-04
 ErrMax= 4.01D-04  0.00D+00 EMaxC= 1.00D-01 BMatC= 1.85D-05 BMatP= 1.02D-02
 IDIUse=3 WtCom= 9.96D-01 WtEn= 4.01D-03
 Coeff-Com:  0.577D-01-0.704D-01 0.101D+01
 Coeff-En:   0.000D+00 0.000D+00 0.100D+01
 Coeff:      0.574D-01-0.702D-01 0.101D+01
 Gap=     0.058 Goal=   None    Shift=    0.000
 RMSDP=1.29D-03 MaxDP=6.26D-02 DE=-8.79D-03 OVMax= 1.60D-02

 Cycle   4  Pass 1  IDiag  1:
 E= -649.191317582310     Delta-E=       -0.000009236156 Rises=F Damp=F
 DIIS: error= 2.95D-04 at cycle   4 NSaved=   4.
 NSaved= 4 IEnMin= 4 EnMin= -649.191317582310     IErMin= 4 ErrMin= 2.95D-04
 ErrMax= 2.95D-04  0.00D+00 EMaxC= 1.00D-01 BMatC= 7.14D-06 BMatP= 1.85D-05
 IDIUse=3 WtCom= 9.97D-01 WtEn= 2.95D-03
 Coeff-Com:  0.330D-01-0.430D-01 0.442D+00 0.568D+00
 Coeff-En:   0.000D+00 0.000D+00 0.422D+00 0.578D+00
 Coeff:      0.329D-01-0.429D-01 0.442D+00 0.568D+00
 Gap=     0.058 Goal=   None    Shift=    0.000
 RMSDP=2.61D-04 MaxDP=9.14D-03 DE=-9.24D-06 OVMax= 1.27D-02

 Cycle   5  Pass 1  IDiag  1:
 E= -649.191343026702     Delta-E=       -0.000025444392 Rises=F Damp=F
 DIIS: error= 1.69D-04 at cycle   5 NSaved=   5.
 NSaved= 5 IEnMin= 5 EnMin= -649.191343026702     IErMin= 5 ErrMin= 1.69D-04
 ErrMax= 1.69D-04  0.00D+00 EMaxC= 1.00D-01 BMatC= 1.65D-06 BMatP= 7.14D-06
 IDIUse=3 WtCom= 9.98D-01 WtEn= 1.69D-03
 Coeff-Com:  0.129D-01-0.175D-01 0.144D+00 0.337D+00 0.524D+00
 Coeff-En:   0.000D+00 0.000D+00 0.000D+00 0.198D+00 0.802D+00
 Coeff:      0.129D-01-0.175D-01 0.144D+00 0.337D+00 0.524D+00
 Gap=     0.058 Goal=   None    Shift=    0.000
 RMSDP=1.49D-04 MaxDP=6.30D-03 DE=-2.54D-05 OVMax= 4.26D-03

 Cycle   6  Pass 1  IDiag  1:
 E= -649.191350550005     Delta-E=       -0.000007523303 Rises=F Damp=F
 DIIS: error= 7.73D-06 at cycle   6 NSaved=   6.
 NSaved= 6 IEnMin= 6 EnMin= -649.191350550005     IErMin= 6 ErrMin= 7.73D-06
 ErrMax= 7.73D-06  0.00D+00 EMaxC= 1.00D-01 BMatC= 1.26D-08 BMatP= 1.65D-06
 IDIUse=1 WtCom= 1.00D+00 WtEn= 0.00D+00
 Coeff-Com:  0.725D-03-0.108D-02 0.189D-01 0.539D-01 0.115D+00 0.812D+00
 Coeff:      0.725D-03-0.108D-02 0.189D-01 0.539D-01 0.115D+00 0.812D+00
 Gap=     0.058 Goal=   None    Shift=    0.000
 RMSDP=9.24D-06 MaxDP=3.87D-04 DE=-7.52D-06 OVMax= 1.86D-04

 Cycle   7  Pass 1  IDiag  1:
 E= -649.191350568315     Delta-E=       -0.000000018310 Rises=F Damp=F
 DIIS: error= 3.09D-06 at cycle   7 NSaved=   7.
 NSaved= 7 IEnMin= 7 EnMin= -649.191350568315     IErMin= 7 ErrMin= 3.09D-06
 ErrMax= 3.09D-06  0.00D+00 EMaxC= 1.00D-01 BMatC= 1.30D-09 BMatP= 1.26D-08
 IDIUse=1 WtCom= 1.00D+00 WtEn= 0.00D+00
 Coeff-Com: -0.646D-03 0.832D-03-0.238D-02-0.275D-02 0.766D-02 0.293D+00
 Coeff-Com:  0.704D+00
 Coeff:     -0.646D-03 0.832D-03-0.238D-02-0.275D-02 0.766D-02 0.293D+00
 Coeff:      0.704D+00
 Gap=     0.058 Goal=   None    Shift=    0.000
 RMSDP=1.89D-06 MaxDP=4.80D-05 DE=-1.83D-08 OVMax= 2.65D-05

 Cycle   8  Pass 1  IDiag  1:
 E= -649.191350569067     Delta-E=       -0.000000000752 Rises=F Damp=F
 DIIS: error= 3.32D-07 at cycle   8 NSaved=   8.
 NSaved= 8 IEnMin= 8 EnMin= -649.191350569067     IErMin= 8 ErrMin= 3.32D-07
 ErrMax= 3.32D-07  0.00D+00 EMaxC= 1.00D-01 BMatC= 2.29D-11 BMatP= 1.30D-09
 IDIUse=1 WtCom= 1.00D+00 WtEn= 0.00D+00
 Coeff-Com:  0.595D-04-0.767D-04-0.523D-03-0.288D-02-0.521D-02-0.351D-01
 Coeff-Com:  0.841D-02 0.104D+01
 Coeff:      0.595D-04-0.767D-04-0.523D-03-0.288D-02-0.521D-02-0.351D-01
 Coeff:      0.841D-02 0.104D+01
 Gap=     0.058 Goal=   None    Shift=    0.000
 RMSDP=1.08D-06 MaxDP=2.51D-05 DE=-7.52D-10 OVMax= 1.30D-05

 Cycle   9  Pass 1  IDiag  1:
 E= -649.191350569132     Delta-E=       -0.000000000065 Rises=F Damp=F
 DIIS: error= 7.81D-08 at cycle   9 NSaved=   9.
 NSaved= 9 IEnMin= 9 EnMin= -649.191350569132     IErMin= 9 ErrMin= 7.81D-08
 ErrMax= 7.81D-08  0.00D+00 EMaxC= 1.00D-01 BMatC= 9.74D-13 BMatP= 2.29D-11
 IDIUse=1 WtCom= 1.00D+00 WtEn= 0.00D+00
 Coeff-Com:  0.296D-04-0.380D-04-0.926D-04-0.716D-03-0.152D-02-0.139D-01
 Coeff-Com: -0.185D-01 0.300D+00 0.734D+00
 Coeff:      0.296D-04-0.380D-04-0.926D-04-0.716D-03-0.152D-02-0.139D-01
 Coeff:     -0.185D-01 0.300D+00 0.734D+00
 Gap=     0.058 Goal=   None    Shift=    0.000
 RMSDP=1.48D-07 MaxDP=3.92D-06 DE=-6.50D-11 OVMax= 2.73D-06

 Cycle  10  Pass 1  IDiag  1:
 E= -649.191350569137     Delta-E=       -0.000000000004 Rises=F Damp=F
 DIIS: error= 2.25D-08 at cycle  10 NSaved=  10.
 NSaved=10 IEnMin=10 EnMin= -649.191350569137     IErMin=10 ErrMin= 2.25D-08
 ErrMax= 2.25D-08  0.00D+00 EMaxC= 1.00D-01 BMatC= 6.10D-14 BMatP= 9.74D-13
 IDIUse=1 WtCom= 1.00D+00 WtEn= 0.00D+00
 Coeff-Com:  0.310D-05-0.392D-05 0.634D-05 0.108D-04-0.262D-04-0.180D-02
 Coeff-Com: -0.420D-02 0.141D-01 0.181D+00 0.811D+00
 Coeff:      0.310D-05-0.392D-05 0.634D-05 0.108D-04-0.262D-04-0.180D-02
 Coeff:     -0.420D-02 0.141D-01 0.181D+00 0.811D+00
 Gap=     0.058 Goal=   None    Shift=    0.000
 RMSDP=6.26D-08 MaxDP=2.06D-06 DE=-4.09D-12 OVMax= 8.74D-07

 Cycle  11  Pass 1  IDiag  1:
 E= -649.191350569139     Delta-E=       -0.000000000003 Rises=F Damp=F
 DIIS: error= 8.63D-09 at cycle  11 NSaved=  11.
 NSaved=11 IEnMin=11 EnMin= -649.191350569139     IErMin=11 ErrMin= 8.63D-09
 ErrMax= 8.63D-09  0.00D+00 EMaxC= 1.00D-01 BMatC= 1.51D-14 BMatP= 6.10D-14
 IDIUse=1 WtCom= 1.00D+00 WtEn= 0.00D+00
 Coeff-Com: -0.186D-05 0.245D-05 0.122D-04 0.813D-04 0.153D-03 0.521D-03
 Coeff-Com: -0.558D-03-0.257D-01 0.193D-01 0.386D+00 0.620D+00
 Coeff:     -0.186D-05 0.245D-05 0.122D-04 0.813D-04 0.153D-03 0.521D-03
 Coeff:     -0.558D-03-0.257D-01 0.193D-01 0.386D+00 0.620D+00
 Gap=     0.058 Goal=   None    Shift=    0.000
 RMSDP=1.72D-08 MaxDP=6.45D-07 DE=-2.61D-12 OVMax= 1.42D-07

 Cycle  12  Pass 1  IDiag  1:
 E= -649.191350569135     Delta-E=        0.000000000004 Rises=F Damp=F
 DIIS: error= 1.36D-09 at cycle  12 NSaved=  12.
 NSaved=12 IEnMin=11 EnMin= -649.191350569139     IErMin=12 ErrMin= 1.36D-09
 ErrMax= 1.36D-09  0.00D+00 EMaxC= 1.00D-01 BMatC= 1.86D-16 BMatP= 1.51D-14
 IDIUse=1 WtCom= 1.00D+00 WtEn= 0.00D+00
 Coeff-Com: -0.524D-06 0.683D-06 0.221D-05 0.196D-04 0.373D-04 0.160D-03
 Coeff-Com: -0.236D-04-0.656D-02-0.569D-02 0.619D-01 0.884D-01 0.862D+00
 Coeff:     -0.524D-06 0.683D-06 0.221D-05 0.196D-04 0.373D-04 0.160D-03
 Coeff:     -0.236D-04-0.656D-02-0.569D-02 0.619D-01 0.884D-01 0.862D+00
 Gap=     0.058 Goal=   None    Shift=    0.000
 RMSDP=4.80D-09 MaxDP=1.85D-07 DE= 3.87D-12 OVMax= 5.13D-08

 SCF Done:  E(RB3LYP) =  -649.191350569     A.U. after   12 cycles
            NFock= 12  Conv=0.48D-08     -V/T= 2.0028
 KE= 6.473681308959D+02 PE=-1.708901570469D+03 EE= 3.375121486263D+02
 Leave Link  502 at Fri Sep 29 22:51:15 2023, MaxMem=  1610612736 cpu:              10.8 elap:               0.7
 (Enter /home/sekinelabo/g16/l601.exe)
 Copying SCF densities to generalized density rwf, IOpCl= 0 IROHF=0.

 **********************************************************************

            Population analysis using the SCF Density.

 **********************************************************************

 Orbital symmetries:
       Occupied  (SG) (SG) (SG) (SG) (SG) (SG) (SG) (SG) (SG) (PI)
                 (PI) (SG) (PI) (PI) (PI) (PI) (SG) (PI) (PI) (SG)
                 (SG) (SG)
       Virtual   (SG) (SG) (PI) (PI) (PI) (PI) (SG) (SG) (PI) (PI)
                 (SG) (SG) (PI) (PI) (SG) (PI) (PI) (SG) (PI) (PI)
                 (SG) (PI) (PI) (PI) (PI) (SG) (SG) (SG) (SG) (PI)
                 (PI) (SG) (SG) (PI) (PI) (SG) (PI) (PI) (PI) (PI)
                 (SG) (SG) (SG) (SG) (SG) (PI) (PI) (PI) (PI) (DLTA)
                 (DLTA) (SG) (DLTA) (DLTA) (SG) (DLTA) (DLTA) (DLTA)
                 (DLTA) (PI) (PI) (PI) (PI) (SG) (PI) (PI) (PI)
                 (PI) (PI) (PI) (SG) (SG) (SG) (PI) (PI) (SG) (SG)
                 (SG) (SG) (SG) (SG) (PI) (PI) (PI) (PI) (PI) (PI)
                 (SG) (SG) (PI) (PI) (SG) (SG) (SG) (SG) (SG) (SG)
 The electronic state is 1-SG.
 Alpha  occ. eigenvalues --  -38.45041 -38.44854 -38.44748 -38.44567  -2.20765
 Alpha  occ. eigenvalues --   -2.20632  -2.20576  -2.20425  -1.14764  -1.14439
 Alpha  occ. eigenvalues --   -1.14439  -1.14387  -1.14252  -1.14252  -1.14234
 Alpha  occ. eigenvalues --   -1.14234  -1.14192  -1.14020  -1.14020  -1.13876
 Alpha  occ. eigenvalues --   -0.13898  -0.12694
 Alpha virt. eigenvalues --   -0.06939  -0.04688  -0.02890  -0.02890  -0.02164
 Alpha virt. eigenvalues --   -0.02164  -0.01409   0.00084   0.00270   0.00270
 Alpha virt. eigenvalues --    0.00313   0.00997   0.01110   0.01110   0.01167
 Alpha virt. eigenvalues --    0.01314   0.01314   0.02269   0.02425   0.02425
 Alpha virt. eigenvalues --    0.02435   0.02744   0.02744   0.03562   0.03562
 Alpha virt. eigenvalues --    0.03797   0.04505   0.05439   0.05911   0.07079
 Alpha virt. eigenvalues --    0.07079   0.07171   0.07929   0.07996   0.07996
 Alpha virt. eigenvalues --    0.09194   0.09735   0.09735   0.10407   0.10407
 Alpha virt. eigenvalues --    0.10869   0.12215   0.14980   0.15908   0.17768
 Alpha virt. eigenvalues --    0.29840   0.29840   0.30576   0.30576   0.30999
 Alpha virt. eigenvalues --    0.30999   0.31706   0.34112   0.34112   0.34909
 Alpha virt. eigenvalues --    0.36269   0.36269   0.39464   0.39464   0.41855
 Alpha virt. eigenvalues --    0.41855   0.42662   0.42662   0.42801   0.43492
 Alpha virt. eigenvalues --    0.43492   0.44275   0.44275   0.44909   0.44909
 Alpha virt. eigenvalues --    0.46167   0.48770   0.49619   0.54683   0.54683
 Alpha virt. eigenvalues --    0.56027   0.87547   2.01110   2.08383   2.08557
 Alpha virt. eigenvalues --    2.11091   4.42570   4.42570   4.43905   4.43905
 Alpha virt. eigenvalues --    4.44593   4.44593   4.45650   4.46628   4.47532
 Alpha virt. eigenvalues --    4.47532   4.49205   4.80200  96.20099  96.29110
 Alpha virt. eigenvalues --   96.31329  96.32051
          Condensed to atoms (all electrons):
               1          2          3          4
     1  Na  10.461115   0.381430  -0.077026   0.000944
     2  Na   0.381430  11.891437  -0.050943  -0.532106
     3  Na  -0.077026  -0.050943  11.989792  -0.523291
     4  Na   0.000944  -0.532106  -0.523291  11.259641
 Mulliken charges:
               1
     1  Na   0.233537
     2  Na  -0.689818
     3  Na  -0.338532
     4  Na   0.794813
 Sum of Mulliken charges =   0.00000
 Mulliken charges with hydrogens summed into heavy atoms:
               1
     1  Na   0.233537
     2  Na  -0.689818
     3  Na  -0.338532
     4  Na   0.794813
 Electronic spatial extent (au):  <R**2>=           3335.4078
 Charge=              0.0000 electrons
 Dipole moment (field-independent basis, Debye):
    X=              0.0000    Y=              0.0000    Z=              0.0648  Tot=              0.0648
 Quadrupole moment (field-independent basis, Debye-Ang):
   XX=            -44.8905   YY=            -44.8905   ZZ=            -18.0186
   XY=              0.0000   XZ=              0.0000   YZ=              0.0000
 Traceless Quadrupole moment (field-independent basis, Debye-Ang):
   XX=             -8.9573   YY=             -8.9573   ZZ=             17.9146
   XY=              0.0000   XZ=              0.0000   YZ=              0.0000
 Octapole moment (field-independent basis, Debye-Ang**2):
  XXX=              0.0000  YYY=              0.0000  ZZZ=             39.1297  XYY=              0.0000
  XXY=              0.0000  XXZ=             -2.5805  XZZ=              0.0000  YZZ=              0.0000
  YYZ=             -2.5805  XYZ=              0.0000
 Hexadecapole moment (field-independent basis, Debye-Ang**3):
 XXXX=           -189.2201 YYYY=           -189.2201 ZZZZ=          -2897.3064 XXXY=              0.0000
 XXXZ=              0.0000 YYYX=              0.0000 YYYZ=              0.0000 ZZZX=              0.0000
 ZZZY=              0.0000 XXYY=            -63.0734 XXZZ=           -951.1295 YYZZ=           -951.1295
 XXYZ=              0.0000 YYXZ=              0.0000 ZZXY=              0.0000
 N-N= 7.482994037795D+01 E-N=-1.708901570500D+03  KE= 6.473681308959D+02
 Symmetry A1   KE= 5.524546345340D+02
 Symmetry A2   KE=-1.130682364009D-52
 Symmetry B1   KE= 4.745674818096D+01
 Symmetry B2   KE= 4.745674818096D+01
 No NMR shielding tensors so no spin-rotation constants.
 Leave Link  601 at Fri Sep 29 22:51:16 2023, MaxMem=  1610612736 cpu:               1.0 elap:               0.1
 (Enter /home/sekinelabo/g16/l701.exe)
 ... and contract with generalized density number  0.
 Compute integral first derivatives.
 Leave Link  701 at Fri Sep 29 22:51:16 2023, MaxMem=  1610612736 cpu:               1.2 elap:               0.1
 (Enter /home/sekinelabo/g16/l702.exe)
 L702 exits ... SP integral derivatives will be done elsewhere.
 Leave Link  702 at Fri Sep 29 22:51:16 2023, MaxMem=  1610612736 cpu:               0.4 elap:               0.0
 (Enter /home/sekinelabo/g16/l703.exe)
 Integral derivatives from FoFJK, PRISM(SPDF).
 Compute integral first derivatives, UseDBF=F ICtDFT=           0.
 Calling FoFJK, ICntrl=      2127 FMM=F ISym2X=1 I1Cent= 0 IOpClX= 0 NMat=1 NMatS=1 NMatT=0.
 FoFJK:  IHMeth= 1 ICntrl=    2127 DoSepK=F KAlg= 0 I1Cent=           0 FoldK=F
 IRaf=         0 NMat=       1 IRICut=       1 DoRegI=T DoRafI=F ISym2E= 1 IDoP0=0 IntGTp=1.
 FoFCou: FMM=F IPFlag=           0 FMFlag=      100000 FMFlg1=         800
         NFxFlg=           0 DoJE=F BraDBF=F KetDBF=F FulRan=T
         wScrn=  0.000000 ICntrl=      2127 IOpCl=  0 I1Cent=           0 NGrid=           0
         NMat0=    1 NMatS0=      1 NMatT0=    0 NMatD0=    1 NMtDS0=    0 NMtDT0=    0
 Petite list used in FoFCou.
 Leave Link  703 at Fri Sep 29 22:51:16 2023, MaxMem=  1610612736 cpu:               3.9 elap:               0.2
 (Enter /home/sekinelabo/g16/l716.exe)
 Dipole        = 0.00000000D+00 0.00000000D+00 2.55064437D-02
 ***** Axes restored to original set *****
 -------------------------------------------------------------------
 Center     Atomic                   Forces (Hartrees/Bohr)
 Number     Number              X              Y              Z
 -------------------------------------------------------------------
      1       11          -0.000000000   -0.000000000   -0.015235122
      2       11          -0.000000000   -0.000000000    0.015647234
      3       11          -0.000000000   -0.000000000    0.006432059
      4       11          -0.000000000   -0.000000000   -0.006844171
 -------------------------------------------------------------------
 Cartesian Forces:  Max     0.015647234 RMS     0.006862695
 Z-matrix is all fixed cartesians, so copy forces.
 Force constants in Cartesian coordinates: 
                1             2             3             4             5 
      1  0.100000D+01
      2  0.000000D+00  0.100000D+01
      3  0.000000D+00  0.000000D+00  0.775706D-01
      4  0.000000D+00  0.000000D+00  0.000000D+00  0.100000D+01
      5  0.000000D+00  0.000000D+00  0.000000D+00  0.000000D+00  0.100000D+01
      6  0.000000D+00  0.000000D+00 -0.775706D-01  0.000000D+00  0.000000D+00
      7  0.000000D+00  0.000000D+00  0.000000D+00  0.000000D+00  0.000000D+00
      8  0.000000D+00  0.000000D+00  0.000000D+00  0.000000D+00  0.000000D+00
      9  0.000000D+00  0.000000D+00  0.000000D+00  0.000000D+00  0.000000D+00
     10  0.000000D+00  0.000000D+00  0.000000D+00  0.000000D+00  0.000000D+00
     11  0.000000D+00  0.000000D+00  0.000000D+00  0.000000D+00  0.000000D+00
     12  0.000000D+00  0.000000D+00  0.000000D+00  0.000000D+00  0.000000D+00
                6             7             8             9            10 
      6  0.775706D-01
      7  0.000000D+00  0.100000D+01
      8  0.000000D+00  0.000000D+00  0.100000D+01
      9  0.000000D+00  0.000000D+00  0.000000D+00  0.163139D-01
     10  0.000000D+00  0.000000D+00  0.000000D+00  0.000000D+00  0.100000D+01
     11  0.000000D+00  0.000000D+00  0.000000D+00  0.000000D+00  0.000000D+00
     12  0.000000D+00  0.000000D+00  0.000000D+00 -0.163139D-01  0.000000D+00
               11            12 
     11  0.100000D+01
     12  0.000000D+00  0.163139D-01
 Leave Link  716 at Fri Sep 29 22:51:16 2023, MaxMem=  1610612736 cpu:               0.3 elap:               0.0
 (Enter /home/sekinelabo/g16/l103.exe)

 GradGradGradGradGradGradGradGradGradGradGradGradGradGradGradGradGradGrad
 Berny optimization.
 Search for a local minimum.
 Step number   1 out of a maximum of    2
 All quantities printed in internal units (Hartrees-Bohrs-Radians)
 Second derivative matrix not updated -- first step.
 The second derivative matrix:
                          X1        Y1        Z1        X2        Y2
           X1           1.00000
           Y1           0.00000   1.00000
           Z1           0.00000   0.00000   0.07757
           X2           0.00000   0.00000   0.00000   1.00000
           Y2           0.00000   0.00000   0.00000   0.00000   1.00000
           Z2           0.00000   0.00000  -0.07757   0.00000   0.00000
           X3           0.00000   0.00000   0.00000   0.00000   0.00000
           Y3           0.00000   0.00000   0.00000   0.00000   0.00000
           Z3           0.00000   0.00000   0.00000   0.00000   0.00000
           X4           0.00000   0.00000   0.00000   0.00000   0.00000
           Y4           0.00000   0.00000   0.00000   0.00000   0.00000
           Z4           0.00000   0.00000   0.00000   0.00000   0.00000
                          Z2        X3        Y3        Z3        X4
           Z2           0.07757
           X3           0.00000   1.00000
           Y3           0.00000   0.00000   1.00000
           Z3           0.00000   0.00000   0.00000   0.01631
           X4           0.00000   0.00000   0.00000   0.00000   1.00000
           Y4           0.00000   0.00000   0.00000   0.00000   0.00000
           Z4           0.00000   0.00000   0.00000  -0.01631   0.00000
                          Y4        Z4
           Y4           1.00000
           Z4           0.00000   0.01631
 ITU=  0
     Eigenvalues ---    0.00000   0.03263   0.15514   1.00000   1.00000
     Eigenvalues ---    1.00000   1.00000
 Eigenvalue     1 is   0.00D+00 Eigenvector:
                          Z2        Z3        Z4        Z1        X2
   1                    0.50000  -0.50000  -0.50000   0.50000   0.00000
                          Y3        X3        Y4        Y2        Y1
   1                    0.00000   0.00000   0.00000   0.00000   0.00000
 Quadratic step=4.134D+00 exceeds max=3.000D-01 adjusted using Lamda=-4.543D-03.
 Angle between NR and scaled steps=  68.39 degrees.
 Angle between quadratic step and forces=  41.00 degrees.
 ClnCor:  largest displacement from symmetrization is 0.00D+00 for atom     0.
 Linear search not attempted -- first point.
 ClnCor:  largest displacement from symmetrization is 6.73D-16 for atom     1.
 B after Tr=     0.000000    0.000000    0.000000
         Rot=    1.000000    0.000000    0.000000    0.000000 Ang=   0.00 deg.
 Variable       Old X    -DE/DX   Delta X   Delta X   Delta X     New X
                                 (Linear)    (Quad)   (Total)
    X1        0.00000  -0.00000   0.00000   0.00000   0.00000   0.00000
    Y1        0.00000  -0.00000   0.00000   0.00000   0.00000   0.00000
    Z1        0.00000  -0.01524   0.00000  -0.05232  -0.05232  -0.05232
    X2        0.00000  -0.00000   0.00000   0.00000   0.00000   0.00000
    Y2        0.00000  -0.00000   0.00000   0.00000   0.00000   0.00000
    Z2        4.88498   0.01565   0.00000   0.14108   0.14108   5.02606
    X3        0.00000  -0.00000   0.00000   0.00000   0.00000   0.00000
    Y3        0.00000  -0.00000   0.00000   0.00000   0.00000   0.00000
    Z3       15.19081   0.00643   0.00000   0.13420   0.13420  15.32502
    X4        0.00000  -0.00000   0.00000   0.00000   0.00000   0.00000
    Y4        0.00000  -0.00000   0.00000   0.00000   0.00000   0.00000
    Z4       21.99574  -0.00684   0.00000  -0.22296  -0.22296  21.77278
         Item               Value     Threshold  Converged?
 Maximum Force            0.015647     0.000450     NO 
 RMS     Force            0.006863     0.000300     NO 
 Maximum Displacement     0.222962     0.001800     NO 
 RMS     Displacement     0.086777     0.001200     NO 
 Predicted change in Energy=-2.902536D-03
 GradGradGradGradGradGradGradGradGradGradGradGradGradGradGradGradGradGrad

 Leave Link  103 at Fri Sep 29 22:51:16 2023, MaxMem=  1610612736 cpu:               0.1 elap:               0.0
 (Enter /home/sekinelabo/g16/l9999.exe)
 1\1\GINC-SEKINELABO-XA7R-R37\Force\RB3LYP\6-311+G(d)\Na4\SEKINELABO\29
 -Sep-2023\0\\#p B3LYP/6-311+g(d) force\\\0,1\Na,0.,0.,0.\Na,0.,0.,2.58
 50207127\Na,0.,0.,8.0386307456\Na,0.,0.,11.6396435611\\Version=ES64L-G
 16RevB.01\State=1-SG\HF=-649.1913506\RMSD=4.799e-09\RMSF=6.863e-03\Dip
 ole=0.,0.,0.0255064\Quadrupole=-6.6595305,-6.6595305,13.319061,0.,0.,0
 .\PG=C*V [C*(Na1Na1Na1Na1)]\\@


 KEEP CLOSE TO NATURES HEART, YOURSELF;
 AND BREAK CLEAR AWAY, ONCE IN A WHILE, AND
 CLIMB A MOUNTAIN OR SPEND A WEEK IN THE
 WOODS.  WASH YOUR SPIRIT CLEAN...
                                         -- JOHN MUIR
 Job cpu time:       0 days  0 hours  0 minutes 23.7 seconds.
 Elapsed time:       0 days  0 hours  0 minutes  1.5 seconds.
 File lengths (MBytes):  RWF=     11 Int=      0 D2E=      0 Chk=      2 Scr=      1
 Normal termination of Gaussian 16 at Fri Sep 29 22:51:16 2023.
 Initial command:
 /home/sekinelabo/g16/l1.exe "/home/sekinelabo/g16temp/Gau-87458.inp" -scrdir="/home/sekinelabo/g16temp/"
 Entering Link 1 = /home/sekinelabo/g16/l1.exe PID=     87944.
  
 Copyright (c) 1988-2017, Gaussian, Inc.  All Rights Reserved.
  
 This is part of the Gaussian(R) 16 program.  It is based on
 the Gaussian(R) 09 system (copyright 2009, Gaussian, Inc.),
 the Gaussian(R) 03 system (copyright 2003, Gaussian, Inc.),
 the Gaussian(R) 98 system (copyright 1998, Gaussian, Inc.),
 the Gaussian(R) 94 system (copyright 1995, Gaussian, Inc.),
 the Gaussian 92(TM) system (copyright 1992, Gaussian, Inc.),
 the Gaussian 90(TM) system (copyright 1990, Gaussian, Inc.),
 the Gaussian 88(TM) system (copyright 1988, Gaussian, Inc.),
 the Gaussian 86(TM) system (copyright 1986, Carnegie Mellon
 University), and the Gaussian 82(TM) system (copyright 1983,
 Carnegie Mellon University). Gaussian is a federally registered
 trademark of Gaussian, Inc.
  
 This software contains proprietary and confidential information,
 including trade secrets, belonging to Gaussian, Inc.
  
 This software is provided under written license and may be
 used, copied, transmitted, or stored only in accord with that
 written license.
  
 The following legend is applicable only to US Government
 contracts under FAR:
  
                    RESTRICTED RIGHTS LEGEND
  
 Use, reproduction and disclosure by the US Government is
 subject to restrictions as set forth in subparagraphs (a)
 and (c) of the Commercial Computer Software - Restricted
 Rights clause in FAR 52.227-19.
  
 Gaussian, Inc.
 340 Quinnipiac St., Bldg. 40, Wallingford CT 06492
  
  
 ---------------------------------------------------------------
 Warning -- This program may not be used in any manner that
 competes with the business of Gaussian, Inc. or will provide
 assistance to any competitor of Gaussian, Inc.  The licensee
 of this program is prohibited from giving any competitor of
 Gaussian, Inc. access to this program.  By using this program,
 the user acknowledges that Gaussian, Inc. is engaged in the
 business of creating and licensing software in the field of
 computational chemistry and represents and warrants to the
 licensee that it is not a competitor of Gaussian, Inc. and that
 it will not use this program in any manner prohibited above.
 ---------------------------------------------------------------
  

 Cite this work as:
 Gaussian 16, Revision B.01,
 M. J. Frisch, G. W. Trucks, H. B. Schlegel, G. E. Scuseria, 
 M. A. Robb, J. R. Cheeseman, G. Scalmani, V. Barone, 
 G. A. Petersson, H. Nakatsuji, X. Li, M. Caricato, A. V. Marenich, 
 J. Bloino, B. G. Janesko, R. Gomperts, B. Mennucci, H. P. Hratchian, 
 J. V. Ortiz, A. F. Izmaylov, J. L. Sonnenberg, D. Williams-Young, 
 F. Ding, F. Lipparini, F. Egidi, J. Goings, B. Peng, A. Petrone, 
 T. Henderson, D. Ranasinghe, V. G. Zakrzewski, J. Gao, N. Rega, 
 G. Zheng, W. Liang, M. Hada, M. Ehara, K. Toyota, R. Fukuda, 
 J. Hasegawa, M. Ishida, T. Nakajima, Y. Honda, O. Kitao, H. Nakai, 
 T. Vreven, K. Throssell, J. A. Montgomery, Jr., J. E. Peralta, 
 F. Ogliaro, M. J. Bearpark, J. J. Heyd, E. N. Brothers, K. N. Kudin, 
 V. N. Staroverov, T. A. Keith, R. Kobayashi, J. Normand, 
 K. Raghavachari, A. P. Rendell, J. C. Burant, S. S. Iyengar, 
 J. Tomasi, M. Cossi, J. M. Millam, M. Klene, C. Adamo, R. Cammi, 
 J. W. Ochterski, R. L. Martin, K. Morokuma, O. Farkas, 
 J. B. Foresman, and D. J. Fox, Gaussian, Inc., Wallingford CT, 2016.
 
 ******************************************
 Gaussian 16:  ES64L-G16RevB.01 20-Dec-2017
                29-Sep-2023 
 ******************************************
 %NProcShared=16
 Will use up to   16 processors via shared memory.
 %mem=12GB
 %Chk=checkpoint.chk
 -------------------------
 #p B3LYP/6-311+g(d) force
 -------------------------
 1/10=7,30=1,38=1/1,3;
 2/12=2,17=6,18=5,40=1/2;
 3/5=4,6=6,7=11,11=2,25=1,30=1,71=1,74=-5/1,2,3;
 4//1;
 5/5=2,38=5/2;
 6/7=2,8=2,9=2,10=2,28=1/1;
 7/29=1/1,2,3,16;
 1/10=7,30=1/3;
 99//99;
 Leave Link    1 at Fri Sep 29 22:51:16 2023, MaxMem=  1610612736 cpu:               0.2 elap:               0.0
 (Enter /home/sekinelabo/g16/l101.exe)


 Symbolic Z-matrix:
 Charge =  0 Multiplicity = 1
 Na                    0.        0.        0. 
 Na                    0.        0.        4.22664 
 Na                    0.        0.        9.14146 
 Na                    0.        0.        14.41344 
 
 ITRead=  0  0  0  0
 MicOpt= -1 -1 -1 -1
 NAtoms=      4 NQM=        4 NQMF=       0 NMMI=      0 NMMIF=      0
                NMic=       0 NMicF=      0.
                    Isotopes and Nuclear Properties:
 (Nuclear quadrupole moments (NQMom) in fm**2, nuclear magnetic moments (NMagM)
  in nuclear magnetons)

  Atom         1           2           3           4
 IAtWgt=          23          23          23          23
 AtmWgt=  22.9897697  22.9897697  22.9897697  22.9897697
 NucSpn=           3           3           3           3
 AtZEff=  -0.0000000  -0.0000000  -0.0000000  -0.0000000
 NQMom=   10.4000000  10.4000000  10.4000000  10.4000000
 NMagM=    2.2175200   2.2175200   2.2175200   2.2175200
 AtZNuc=  11.0000000  11.0000000  11.0000000  11.0000000
 Leave Link  101 at Fri Sep 29 22:51:16 2023, MaxMem=  1610612736 cpu:               1.7 elap:               0.1
 (Enter /home/sekinelabo/g16/l103.exe)

 GradGradGradGradGradGradGradGradGradGradGradGradGradGradGradGradGradGrad
 Berny optimization.
 Initialization pass.
 Trust Radius=3.00D-01 FncErr=1.00D-07 GrdErr=1.00D-07 EigMax=2.50D+02 EigMin=1.00D-04
 Number of steps in this run=      2 maximum allowed number of steps=      2.
 GradGradGradGradGradGradGradGradGradGradGradGradGradGradGradGradGradGrad

 Leave Link  103 at Fri Sep 29 22:51:16 2023, MaxMem=  1610612736 cpu:               0.1 elap:               0.0
 (Enter /home/sekinelabo/g16/l202.exe)
                          Input orientation:                          
 ---------------------------------------------------------------------
 Center     Atomic      Atomic             Coordinates (Angstroms)
 Number     Number       Type             X           Y           Z
 ---------------------------------------------------------------------
      1         11           0        0.000000    0.000000    0.000000
      2         11           0        0.000000    0.000000    4.226639
      3         11           0        0.000000    0.000000    9.141464
      4         11           0        0.000000    0.000000   14.413438
 ---------------------------------------------------------------------
                    Distance matrix (angstroms):
                    1          2          3          4
     1  Na   0.000000
     2  Na   4.226639   0.000000
     3  Na   9.141464   4.914825   0.000000
     4  Na  14.413438  10.186799   5.271974   0.000000
 Stoichiometry    Na4
 Framework group  C*V[C*(NaNaNaNa)]
 Deg. of freedom     3
 Full point group                 C*V     NOp   4
 Largest Abelian subgroup         C2V     NOp   4
[...]
 RMSDP=1.01D-03 MaxDP=5.43D-02 DE= 2.75D-03 OVMax= 8.00D-02

 Cycle   5  Pass 1  IDiag  1:
 E= -649.163972895227     Delta-E=       -0.003358847802 Rises=F Damp=F
 DIIS: error= 6.90D-04 at cycle   5 NSaved=   5.
 NSaved= 5 IEnMin= 5 EnMin= -649.163972895227     IErMin= 5 ErrMin= 6.90D-04
 ErrMax= 6.90D-04  0.00D+00 EMaxC= 1.00D-01 BMatC= 3.70D-05 BMatP= 1.55D-04
 IDIUse=3 WtCom= 9.93D-01 WtEn= 6.90D-03
 Coeff-Com: -0.306D-02 0.355D-02 0.334D+00 0.110D-01 0.654D+00
 Coeff-En:   0.000D+00 0.000D+00 0.230D+00 0.000D+00 0.770D+00
 Coeff:     -0.304D-02 0.353D-02 0.333D+00 0.110D-01 0.655D+00
 Gap=     0.045 Goal=   None    Shift=    0.000
 RMSDP=2.76D-04 MaxDP=1.30D-02 DE=-3.36D-03 OVMax= 1.87D-02

 Cycle   6  Pass 1  IDiag  1:
 E= -649.164133702923     Delta-E=       -0.000160807696 Rises=F Damp=F
 DIIS: error= 6.64D-05 at cycle   6 NSaved=   6.
 NSaved= 6 IEnMin= 6 EnMin= -649.164133702923     IErMin= 6 ErrMin= 6.64D-05
 ErrMax= 6.64D-05  0.00D+00 EMaxC= 1.00D-01 BMatC= 1.84D-07 BMatP= 3.70D-05
 IDIUse=1 WtCom= 1.00D+00 WtEn= 0.00D+00
 Coeff-Com: -0.500D-02 0.633D-02 0.521D-01-0.293D-01 0.206D+00 0.770D+00
 Coeff:     -0.500D-02 0.633D-02 0.521D-01-0.293D-01 0.206D+00 0.770D+00
 Gap=     0.045 Goal=   None    Shift=    0.000
 RMSDP=3.48D-05 MaxDP=9.22D-04 DE=-1.61D-04 OVMax= 1.33D-03

 Cycle   7  Pass 1  IDiag  1:
 E= -649.164134487058     Delta-E=       -0.000000784135 Rises=F Damp=F
 DIIS: error= 9.68D-06 at cycle   7 NSaved=   7.
 NSaved= 7 IEnMin= 7 EnMin= -649.164134487058     IErMin= 7 ErrMin= 9.68D-06
 ErrMax= 9.68D-06  0.00D+00 EMaxC= 1.00D-01 BMatC= 6.80D-09 BMatP= 1.84D-07
 IDIUse=1 WtCom= 1.00D+00 WtEn= 0.00D+00
 Coeff-Com: -0.424D-03 0.517D-03-0.155D-02-0.306D-02-0.108D-02 0.139D+00
 Coeff-Com:  0.867D+00
 Coeff:     -0.424D-03 0.517D-03-0.155D-02-0.306D-02-0.108D-02 0.139D+00
 Coeff:      0.867D+00
 Gap=     0.045 Goal=   None    Shift=    0.000
 RMSDP=7.77D-06 MaxDP=1.95D-04 DE=-7.84D-07 OVMax= 2.70D-04

 Cycle   8  Pass 1  IDiag  1:
 E= -649.164134509195     Delta-E=       -0.000000022136 Rises=F Damp=F
 DIIS: error= 3.07D-06 at cycle   8 NSaved=   8.
 NSaved= 8 IEnMin= 8 EnMin= -649.164134509195     IErMin= 8 ErrMin= 3.07D-06
 ErrMax= 3.07D-06  0.00D+00 EMaxC= 1.00D-01 BMatC= 5.93D-10 BMatP= 6.80D-09
 IDIUse=1 WtCom= 1.00D+00 WtEn= 0.00D+00
 Coeff-Com:  0.107D-03-0.146D-03-0.340D-02-0.117D-03-0.941D-02 0.198D-02
 Coeff-Com:  0.270D+00 0.741D+00
 Coeff:      0.107D-03-0.146D-03-0.340D-02-0.117D-03-0.941D-02 0.198D-02
 Coeff:      0.270D+00 0.741D+00
 Gap=     0.045 Goal=   None    Shift=    0.000
 RMSDP=3.19D-06 MaxDP=7.96D-05 DE=-2.21D-08 OVMax= 6.73D-05

 Cycle   9  Pass 1  IDiag  1:
 E= -649.164134511563     Delta-E=       -0.000000002368 Rises=F Damp=F
 DIIS: error= 8.06D-07 at cycle   9 NSaved=   9.
 NSaved= 9 IEnMin= 9 EnMin= -649.164134511563     IErMin= 9 ErrMin= 8.06D-07
 ErrMax= 8.06D-07  0.00D+00 EMaxC= 1.00D-01 BMatC= 3.61D-11 BMatP= 5.93D-10
 IDIUse=1 WtCom= 1.00D+00 WtEn= 0.00D+00
 Coeff-Com:  0.153D-03-0.202D-03-0.995D-03 0.596D-03-0.458D-02-0.112D-01
 Coeff-Com:  0.139D-01 0.182D+00 0.820D+00
 Coeff:      0.153D-03-0.202D-03-0.995D-03 0.596D-03-0.458D-02-0.112D-01
 Coeff:      0.139D-01 0.182D+00 0.820D+00
 Gap=     0.045 Goal=   None    Shift=    0.000
 RMSDP=7.56D-07 MaxDP=3.05D-05 DE=-2.37D-09 OVMax= 2.51D-05

 Cycle  10  Pass 1  IDiag  1:
 E= -649.164134511718     Delta-E=       -0.000000000156 Rises=F Damp=F
 DIIS: error= 4.04D-07 at cycle  10 NSaved=  10.
 NSaved=10 IEnMin=10 EnMin= -649.164134511718     IErMin=10 ErrMin= 4.04D-07
 ErrMax= 4.04D-07  0.00D+00 EMaxC= 1.00D-01 BMatC= 3.09D-12 BMatP= 3.61D-11
 IDIUse=1 WtCom= 1.00D+00 WtEn= 0.00D+00
 Coeff-Com:  0.418D-04-0.549D-04-0.113D-03 0.157D-03-0.815D-03-0.474D-02
 Coeff-Com: -0.920D-02 0.848D-02 0.251D+00 0.755D+00
 Coeff:      0.418D-04-0.549D-04-0.113D-03 0.157D-03-0.815D-03-0.474D-02
 Coeff:     -0.920D-02 0.848D-02 0.251D+00 0.755D+00
 Gap=     0.045 Goal=   None    Shift=    0.000
 RMSDP=2.13D-07 MaxDP=4.97D-06 DE=-1.56D-10 OVMax= 9.34D-06

 Cycle  11  Pass 1  IDiag  1:
 E= -649.164134511739     Delta-E=       -0.000000000021 Rises=F Damp=F
 DIIS: error= 6.49D-08 at cycle  11 NSaved=  11.
 NSaved=11 IEnMin=11 EnMin= -649.164134511739     IErMin=11 ErrMin= 6.49D-08
 ErrMax= 6.49D-08  0.00D+00 EMaxC= 1.00D-01 BMatC= 1.36D-13 BMatP= 3.09D-12
 IDIUse=1 WtCom= 1.00D+00 WtEn= 0.00D+00
 Coeff-Com:  0.384D-05-0.502D-05 0.688D-05 0.239D-04-0.520D-04-0.594D-03
 Coeff-Com: -0.181D-02-0.584D-02 0.328D-01 0.227D+00 0.749D+00
 Coeff:      0.384D-05-0.502D-05 0.688D-05 0.239D-04-0.520D-04-0.594D-03
 Coeff:     -0.181D-02-0.584D-02 0.328D-01 0.227D+00 0.749D+00
 Gap=     0.045 Goal=   None    Shift=    0.000
 RMSDP=2.73D-08 MaxDP=1.01D-06 DE=-2.06D-11 OVMax= 1.41D-06

 Cycle  12  Pass 1  IDiag  1:
 E= -649.164134511746     Delta-E=       -0.000000000007 Rises=F Damp=F
 DIIS: error= 5.55D-09 at cycle  12 NSaved=  12.
 NSaved=12 IEnMin=12 EnMin= -649.164134511746     IErMin=12 ErrMin= 5.55D-09
 ErrMax= 5.55D-09  0.00D+00 EMaxC= 1.00D-01 BMatC= 4.97D-15 BMatP= 1.36D-13
 IDIUse=1 WtCom= 1.00D+00 WtEn= 0.00D+00
 Coeff-Com: -0.233D-05 0.306D-05 0.674D-05-0.406D-05 0.356D-04 0.211D-03
 Coeff-Com:  0.244D-03-0.102D-02-0.123D-01-0.828D-02 0.194D+00 0.827D+00
 Coeff:     -0.233D-05 0.306D-05 0.674D-05-0.406D-05 0.356D-04 0.211D-03
 Coeff:      0.244D-03-0.102D-02-0.123D-01-0.828D-02 0.194D+00 0.827D+00
 Gap=     0.045 Goal=   None    Shift=    0.000
 RMSDP=8.25D-09 MaxDP=2.02D-07 DE=-7.28D-12 OVMax= 1.83D-07

 SCF Done:  E(RB3LYP) =  -649.164134512     A.U. after   12 cycles
            NFock= 12  Conv=0.83D-08     -V/T= 2.0026
 KE= 6.474973128696D+02 PE=-1.760755271580D+03 EE= 3.631281920878D+02
 Leave Link  502 at Fri Sep 29 22:51:31 2023, MaxMem=  1610612736 cpu:              11.8 elap:               0.8
 (Enter /home/sekinelabo/g16/l601.exe)
 Copying SCF densities to generalized density rwf, IOpCl= 0 IROHF=0.

 **********************************************************************

            Population analysis using the SCF Density.

 **********************************************************************

 Orbital symmetries:
       Occupied  (SG) (SG) (SG) (SG) (SG) (SG) (SG) (SG) (SG) (PI)
                 (PI) (PI) (PI) (SG) (PI) (PI) (SG) (PI) (PI) (SG)
                 (SG) (SG)
       Virtual   (SG) (PI) (PI) (SG) (PI) (PI) (SG) (PI) (PI) (SG)
                 (SG) (PI) (PI) (SG) (PI) (PI) (SG) (PI) (PI) (SG)
                 (PI) (PI) (SG) (SG) (PI) (PI) (SG) (SG) (PI) (PI)
                 (SG) (SG) (PI) (PI) (PI) (PI) (SG) (PI) (PI) (SG)
                 (SG) (SG) (SG) (SG) (DLTA) (DLTA) (PI) (PI) (DLTA)
                 (DLTA) (DLTA) (DLTA) (PI) (PI) (SG) (PI) (PI)
                 (SG) (PI) (PI) (DLTA) (DLTA) (PI) (PI) (SG) (PI)
                 (PI) (SG) (SG) (PI) (PI) (SG) (PI) (PI) (SG) (SG)
                 (SG) (SG) (SG) (SG) (PI) (PI) (PI) (PI) (SG) (PI)
                 (PI) (PI) (PI) (SG) (SG) (SG) (SG) (SG) (SG) (SG)
 The electronic state is 1-SG.
 Alpha  occ. eigenvalues --  -38.46379 -38.46160 -38.45664 -38.45162  -2.22563
 Alpha  occ. eigenvalues --   -2.22021  -2.21534  -2.20873  -1.17427  -1.16001
 Alpha  occ. eigenvalues --   -1.16001  -1.15556  -1.15556  -1.15503  -1.15121
 Alpha  occ. eigenvalues --   -1.15121  -1.14912  -1.14549  -1.14549  -1.14493
 Alpha  occ. eigenvalues --   -0.15921  -0.11969
 Alpha virt. eigenvalues --   -0.07466  -0.03891  -0.03891  -0.03038  -0.01659
 Alpha virt. eigenvalues --   -0.01659  -0.00469   0.00159   0.00159   0.00376
 Alpha virt. eigenvalues --    0.00511   0.01287   0.01287   0.01464   0.01523
 Alpha virt. eigenvalues --    0.01523   0.01740   0.02453   0.02453   0.02950
 Alpha virt. eigenvalues --    0.03158   0.03158   0.03894   0.04491   0.04610
 Alpha virt. eigenvalues --    0.04610   0.05825   0.06105   0.07121   0.07121
 Alpha virt. eigenvalues --    0.07394   0.08473   0.08506   0.08506   0.08694
 Alpha virt. eigenvalues --    0.08694   0.10852   0.11859   0.11859   0.13765
 Alpha virt. eigenvalues --    0.14944   0.15844   0.18404   0.26297   0.27805
 Alpha virt. eigenvalues --    0.27805   0.27805   0.27805   0.33868   0.33868
 Alpha virt. eigenvalues --    0.35201   0.35201   0.35881   0.35881   0.36958
 Alpha virt. eigenvalues --    0.37434   0.37434   0.39984   0.42324   0.42324
 Alpha virt. eigenvalues --    0.42458   0.42458   0.43593   0.43593   0.44391
 Alpha virt. eigenvalues --    0.45463   0.45463   0.46918   0.47237   0.50366
 Alpha virt. eigenvalues --    0.50366   0.53453   0.68734   0.68734   0.87123
 Alpha virt. eigenvalues --    0.94070   2.03640   2.07392   2.16728   2.25783
 Alpha virt. eigenvalues --    4.41047   4.41047   4.43869   4.43869   4.46359
 Alpha virt. eigenvalues --    4.46380   4.46380   4.48909   4.48909   4.55923
 Alpha virt. eigenvalues --    4.70258   4.86533  96.24386  96.27421  96.40791
 Alpha virt. eigenvalues --   96.50244
          Condensed to atoms (all electrons):
               1          2          3          4
     1  Na  10.804470   0.053565   0.121270  -0.065614
     2  Na   0.053565  10.937373  -0.093407   0.335062
     3  Na   0.121270  -0.093407  10.386975  -0.015391
     4  Na  -0.065614   0.335062  -0.015391  11.200214
 Mulliken charges:
               1
     1  Na   0.086310
     2  Na  -0.232592
     3  Na   0.600553
     4  Na  -0.454271
 Sum of Mulliken charges =  -0.00000
 Mulliken charges with hydrogens summed into heavy atoms:
               1
     1  Na   0.086310
     2  Na  -0.232592
     3  Na   0.600553
     4  Na  -0.454271
 Electronic spatial extent (au):  <R**2>=           1672.5695
 Charge=             -0.0000 electrons
 Dipole moment (field-independent basis, Debye):
    X=              0.0000    Y=              0.0000    Z=             -0.6467  Tot=              0.6467
 Quadrupole moment (field-independent basis, Debye-Ang):
   XX=            -43.5779   YY=            -43.5779   ZZ=            -21.4785
   XY=              0.0000   XZ=              0.0000   YZ=              0.0000
 Traceless Quadrupole moment (field-independent basis, Debye-Ang):
   XX=             -7.3665   YY=             -7.3665   ZZ=             14.7329
   XY=              0.0000   XZ=              0.0000   YZ=              0.0000
 Octapole moment (field-independent basis, Debye-Ang**2):
  XXX=              0.0000  YYY=              0.0000  ZZZ=             13.3623  XYY=              0.0000
  XXY=              0.0000  XXZ=             -4.4922  XZZ=              0.0000  YZZ=              0.0000
  YYZ=             -4.4922  XYZ=              0.0000
 Hexadecapole moment (field-independent basis, Debye-Ang**3):
 XXXX=           -173.0499 YYYY=           -173.0499 ZZZZ=          -1750.8640 XXXY=              0.0000
 XXXZ=              0.0000 YYYX=              0.0000 YYYZ=              0.0000 ZZZX=              0.0000
 ZZZY=              0.0000 XXYY=            -57.6833 XXZZ=           -481.2593 YYZZ=           -481.2593
 XXYZ=              0.0000 YYXZ=              0.0000 ZZXY=              0.0000
 N-N= 1.009656321105D+02 E-N=-1.760755272078D+03  KE= 6.474973128696D+02
 Symmetry A1   KE= 5.525956984638D+02
 Symmetry A2   KE=-4.085406888283D-54
 Symmetry B1   KE= 4.745080720288D+01
 Symmetry B2   KE= 4.745080720288D+01
 No NMR shielding tensors so no spin-rotation constants.
 Leave Link  601 at Fri Sep 29 22:51:31 2023, MaxMem=  1610612736 cpu:               1.0 elap:               0.1
 (Enter /home/sekinelabo/g16/l701.exe)
 ... and contract with generalized density number  0.
 Compute integral first derivatives.
 Leave Link  701 at Fri Sep 29 22:51:31 2023, MaxMem=  1610612736 cpu:               1.4 elap:               0.1
 (Enter /home/sekinelabo/g16/l702.exe)
 L702 exits ... SP integral derivatives will be done elsewhere.
 Leave Link  702 at Fri Sep 29 22:51:31 2023, MaxMem=  1610612736 cpu:               0.3 elap:               0.0
 (Enter /home/sekinelabo/g16/l703.exe)
 Integral derivatives from FoFJK, PRISM(SPDF).
 Compute integral first derivatives, UseDBF=F ICtDFT=           0.
 Calling FoFJK, ICntrl=      2127 FMM=F ISym2X=1 I1Cent= 0 IOpClX= 0 NMat=1 NMatS=1 NMatT=0.
 FoFJK:  IHMeth= 1 ICntrl=    2127 DoSepK=F KAlg= 0 I1Cent=           0 FoldK=F
 IRaf=         0 NMat=       1 IRICut=       1 DoRegI=T DoRafI=F ISym2E= 1 IDoP0=0 IntGTp=1.
 FoFCou: FMM=F IPFlag=           0 FMFlag=      100000 FMFlg1=         800
         NFxFlg=           0 DoJE=F BraDBF=F KetDBF=F FulRan=T
         wScrn=  0.000000 ICntrl=      2127 IOpCl=  0 I1Cent=           0 NGrid=           0
         NMat0=    1 NMatS0=      1 NMatT0=    0 NMatD0=    1 NMtDS0=    0 NMtDT0=    0
 Petite list used in FoFCou.
 Leave Link  703 at Fri Sep 29 22:51:31 2023, MaxMem=  1610612736 cpu:               4.5 elap:               0.3
 (Enter /home/sekinelabo/g16/l716.exe)
 Dipole        = 0.00000000D+00 0.00000000D+00-2.54437531D-01
 ***** Axes restored to original set *****
 -------------------------------------------------------------------
 Center     Atomic                   Forces (Hartrees/Bohr)
 Number     Number              X              Y              Z
 -------------------------------------------------------------------
      1       11          -0.000000000   -0.000000000    0.006741091
      2       11          -0.000000000   -0.000000000   -0.040305058
      3       11          -0.000000000   -0.000000000    0.015868945
      4       11          -0.000000000   -0.000000000    0.017695022
 -------------------------------------------------------------------
 Cartesian Forces:  Max     0.040305058 RMS     0.013646969
 Z-matrix is all fixed cartesians, so copy forces.
 Force constants in Cartesian coordinates: 
                1             2             3             4             5 
      1  0.478740D-02
      2  0.000000D+00  0.478740D-02
      3  0.000000D+00  0.000000D+00  0.126331D-01
      4 -0.128059D-01  0.000000D+00  0.000000D+00  0.476855D-01
      5  0.000000D+00 -0.128059D-01  0.000000D+00  0.000000D+00  0.476855D-01
      6  0.000000D+00  0.000000D+00 -0.126331D-01  0.000000D+00  0.000000D+00
      7  0.801855D-02  0.000000D+00  0.000000D+00 -0.468822D-01  0.000000D+00
      8  0.000000D+00  0.801855D-02  0.000000D+00  0.000000D+00 -0.468822D-01
      9  0.000000D+00  0.000000D+00  0.000000D+00  0.000000D+00  0.000000D+00
     10  0.000000D+00  0.000000D+00  0.000000D+00  0.120027D-01  0.000000D+00
     11  0.000000D+00  0.000000D+00  0.000000D+00  0.000000D+00  0.120027D-01
     12  0.000000D+00  0.000000D+00  0.000000D+00  0.000000D+00  0.000000D+00
                6             7             8             9            10 
      6  0.165590D+00
      7  0.000000D+00  0.615929D-01
      8  0.000000D+00  0.000000D+00  0.615929D-01
      9 -0.152957D+00  0.000000D+00  0.000000D+00  0.235460D+00
     10  0.000000D+00 -0.227293D-01  0.000000D+00  0.000000D+00  0.107266D-01
     11  0.000000D+00  0.000000D+00 -0.227293D-01  0.000000D+00  0.000000D+00
     12  0.000000D+00  0.000000D+00  0.000000D+00 -0.825031D-01  0.000000D+00
               11            12 
     11  0.107266D-01
     12  0.000000D+00  0.825031D-01
 Leave Link  716 at Fri Sep 29 22:51:31 2023, MaxMem=  1610612736 cpu:               0.3 elap:               0.0
 (Enter /home/sekinelabo/g16/l103.exe)

 GradGradGradGradGradGradGradGradGradGradGradGradGradGradGradGradGradGrad
 Berny optimization.
 Search for a local minimum.
 Step number   1 out of a maximum of    2
 All quantities printed in internal units (Hartrees-Bohrs-Radians)
 Second derivative matrix not updated -- first step.
 The second derivative matrix:
                          X1        Y1        Z1        X2        Y2
           X1           0.00479
           Y1           0.00000   0.00479
           Z1           0.00000   0.00000   0.01263
           X2          -0.01281   0.00000   0.00000   0.04769
           Y2           0.00000  -0.01281   0.00000   0.00000   0.04769
           Z2           0.00000   0.00000  -0.01263   0.00000   0.00000
           X3           0.00802   0.00000   0.00000  -0.04688   0.00000
           Y3           0.00000   0.00802   0.00000   0.00000  -0.04688
           Z3           0.00000   0.00000   0.00000   0.00000   0.00000
           X4           0.00000   0.00000   0.00000   0.01200   0.00000
           Y4           0.00000   0.00000   0.00000   0.00000   0.01200
           Z4           0.00000   0.00000   0.00000   0.00000   0.00000
                          Z2        X3        Y3        Z3        X4
           Z2           0.16559
           X3           0.00000   0.06159
           Y3           0.00000   0.00000   0.06159
           Z3          -0.15296   0.00000   0.00000   0.23546
           X4           0.00000  -0.02273   0.00000   0.00000   0.01073
           Y4           0.00000   0.00000  -0.02273   0.00000   0.00000
           Z4           0.00000   0.00000   0.00000  -0.08250   0.00000
                          Y4        Z4
           Y4           0.01073
           Z4           0.00000   0.08250
 ITU=  0
     Eigenvalues ---    0.01448   0.01448   0.01586   0.10798   0.11032
     Eigenvalues ---    0.11032   0.37234
 Quadratic step=4.110D-01 exceeds max=3.000D-01 adjusted using Lamda=-2.056D-02.
 Angle between NR and scaled steps=  15.69 degrees.
 Angle between quadratic step and forces=  29.84 degrees.
 ClnCor:  largest displacement from symmetrization is 2.48D-16 for atom     3.
 Linear search not attempted -- first point.
 ClnCor:  largest displacement from symmetrization is 4.16D-17 for atom     1.
 B after Tr=     0.000000    0.000000    0.000000
         Rot=    1.000000    0.000000    0.000000    0.000000 Ang=   0.00 deg.
 Variable       Old X    -DE/DX   Delta X   Delta X   Delta X     New X
                                 (Linear)    (Quad)   (Total)
    X1        0.00000  -0.00000   0.00000   0.00000   0.00000   0.00000
    Y1        0.00000  -0.00000   0.00000   0.00000   0.00000   0.00000
    Z1        0.00000   0.00674   0.00000   0.11442   0.11442   0.11442
    X2        0.00000  -0.00000   0.00000  -0.00000   0.00000   0.00000
    Y2        0.00000  -0.00000   0.00000   0.00000   0.00000   0.00000
    Z2        7.22637  -0.04031   0.00000  -0.23300  -0.23300   6.99337
    X3        0.00000  -0.00000   0.00000  -0.00000   0.00000   0.00000
    Y3        0.00000  -0.00000   0.00000   0.00000   0.00000   0.00000
    Z3       11.54081   0.01587   0.00000  -0.02950  -0.02950  11.51130
    X4        0.00000  -0.00000   0.00000   0.00000   0.00000   0.00000
    Y4        0.00000  -0.00000   0.00000   0.00000   0.00000   0.00000
    Z4       16.36849   0.01770   0.00000   0.14808   0.14808  16.51657
         Item               Value     Threshold  Converged?
 Maximum Force            0.040305     0.000450     NO 
 RMS     Force            0.013647     0.000300     NO 
 Maximum Displacement     0.232998     0.001800     NO 
 RMS     Displacement     0.086688     0.001200     NO 
 Predicted change in Energy=-7.084113D-03
 GradGradGradGradGradGradGradGradGradGradGradGradGradGradGradGradGradGrad

 Leave Link  103 at Fri Sep 29 22:51:31 2023, MaxMem=  1610612736 cpu:               0.1 elap:               0.0
 (Enter /home/sekinelabo/g16/l9999.exe)
 1\1\GINC-SEKINELABO-XA7R-R37\Force\RB3LYP\6-311+G(d)\Na4\SEKINELABO\29
 -Sep-2023\0\\#p B3LYP/6-311+g(d) force\\\0,1\Na,0.,0.,0.\Na,0.,0.,3.82
 40316662\Na,0.,0.,6.10713102\Na,0.,0.,8.6618321159\\Version=ES64L-G16R
 evB.01\State=1-SG\HF=-649.1641345\RMSD=8.250e-09\RMSF=1.365e-02\Dipole
 =0.,0.,0.2544375\Quadrupole=-5.4767861,-5.4767861,10.9535723,0.,0.,0.\
 PG=C*V [C*(Na1Na1Na1Na1)]\\@


 SCIENCE AT ITS BEST PROVIDES US WITH BETTER QUESTIONS, 
 NOT ABSOLUTE ANSWERS

                                    -- NORMAN COUSINS, 1976
 Job cpu time:       0 days  0 hours  0 minutes 25.8 seconds.
 Elapsed time:       0 days  0 hours  0 minutes  1.7 seconds.
 File lengths (MBytes):  RWF=     11 Int=      0 D2E=      0 Chk=      2 Scr=      1
 Normal termination of Gaussian 16 at Fri Sep 29 22:51:31 2023.
