 Initial command:
 /home/masato/g16/l1.exe "/home/masato/g16temp/Gau-38813.inp" -scrdir="/home/masato/g16temp/"
 Entering Link 1 = /home/masato/g16/l1.exe PID=     38816.
  
 Copyright (c) 1988-2017, Gaussian, Inc.  All Rights Reserved.
  
 This is part of the Gaussian(R) 16 program.  It is based on
 the Gaussian(R) 09 system (copyright 2009, Gaussian, Inc.),
 the Gaussian(R) 03 system (copyright 2003, Gaussian, Inc.),
 the Gaussian(R) 98 system (copyright 1998, Gaussian, Inc.),
 the Gaussian(R) 94 system (copyright 1995, Gaussian, Inc.),
 the Gaussian 92(TM) system (copyright 1992, Gaussian, Inc.),
 the Gaussian 90(TM) system (copyright 1990, Gaussian, Inc.),
 the Gaussian 88(TM) system (copyright 1988, Gaussian, Inc.),
 the Gaussian 86(TM) system (copyright 1986, Carnegie Mellon
 University), and the Gaussian 82(TM) system (copyright 1983,
 Carnegie Mellon University). Gaussian is a federally registered
 trademark of Gaussian, Inc.
  
 This software contains proprietary and confidential information,
 including trade secrets, belonging to Gaussian, Inc.
  
 This software is provided under written license and may be
 used, copied, transmitted, or stored only in accord with that
 written license.
  
 The following legend is applicable only to US Government
 contracts under FAR:
  
                    RESTRICTED RIGHTS LEGEND
  
 Use, reproduction and disclosure by the US Government is
 subject to restrictions as set forth in subparagraphs (a)
 and (c) of the Commercial Computer Software - Restricted
 Rights clause in FAR 52.227-19.
  
 Gaussian, Inc.
 340 Quinnipiac St., Bldg. 40, Wallingford CT 06492
  
  
 ---------------------------------------------------------------
 Warning -- This program may not be used in any manner that
 competes with the business of Gaussian, Inc. or will provide
 assistance to any competitor of Gaussian, Inc.  The licensee
 of this program is prohibited from giving any competitor of
 Gaussian, Inc. access to this program.  By using this program,
 the user acknowledges that Gaussian, Inc. is engaged in the
 business of creating and licensing software in the field of
 computational chemistry and represents and warrants to the
 licensee that it is not a competitor of Gaussian, Inc. and that
 it will not use this program in any manner prohibited above.
 ---------------------------------------------------------------
  

 Cite this work as:
 Gaussian 16, Revision B.01,
 M. J. Frisch, G. W. Trucks, H. B. Schlegel, G. E. Scuseria, 
 M. A. Robb, J. R. Cheeseman, G. Scalmani, V. Barone, 
 G. A. Petersson, H. Nakatsuji, X. Li, M. Caricato, A. V. Marenich, 
 J. Bloino, B. G. Janesko, R. Gomperts, B. Mennucci, H. P. Hratchian, 
 J. V. Ortiz, A. F. Izmaylov, J. L. Sonnenberg, D. Williams-Young, 
 F. Ding, F. Lipparini, F. Egidi, J. Goings, B. Peng, A. Petrone, 
 T. Henderson, D. Ranasinghe, V. G. Zakrzewski, J. Gao, N. Rega, 
 G. Zheng, W. Liang, M. Hada, M. Ehara, K. Toyota, R. Fukuda, 
 J. Hasegawa, M. Ishida, T. Nakajima, Y. Honda, O. Kitao, H. Nakai, 
 T. Vreven, K. Throssell, J. A. Montgomery, Jr., J. E. Peralta, 
 F. Ogliaro, M. J. Bearpark, J. J. Heyd, E. N. Brothers, K. N. Kudin, 
 V. N. Staroverov, T. A. Keith, R. Kobayashi, J. Normand, 
 K. Raghavachari, A. P. Rendell, J. C. Burant, S. S. Iyengar, 
 J. Tomasi, M. Cossi, J. M. Millam, M. Klene, C. Adamo, R. Cammi, 
 J. W. Ochterski, R. L. Martin, K. Morokuma, O. Farkas, 
 J. B. Foresman, and D. J. Fox, Gaussian, Inc., Wallingford CT, 2016.
 
 ******************************************
 Gaussian 16:  ES64L-G16RevB.01 20-Dec-2017
                 3-Jul-2023 
 ******************************************
 %NProcShared=8
 Will use up to    8 processors via shared memory.
 %mem=12GB
 %Chk=checkpoint.chk
 -------------------------
 #p B3LYP/6-311+g(d) force
 -------------------------
 1/10=7,30=1,38=1/1,3;
 2/12=2,17=6,18=5,40=1/2;
 3/5=4,6=6,7=11,11=2,25=1,30=1,71=1,74=-5/1,2,3;
 4//1;
 5/5=2,38=5/2;
 6/7=2,8=2,9=2,10=2,28=1/1;
 7/29=1/1,2,3,16;
 1/10=7,30=1/3;
 99//99;
 Leave Link    1 at Mon Jul  3 12:15:02 2023, MaxMem=  1610612736 cpu:               0.2 elap:               0.0
 (Enter /home/masato/g16/l101.exe)
 ----
 Test
 ----
 Symbolic Z-matrix:
 Charge =  0 Multiplicity = 1
 Na                    0.        0.        0. 
 Na                    0.        0.        2.27714 
 Na                    0.        0.        4.51136 
 Na                    0.        0.        9.03905 
 
 ITRead=  0  0  0  0
 MicOpt= -1 -1 -1 -1
 NAtoms=      4 NQM=        4 NQMF=       0 NMMI=      0 NMMIF=      0
                NMic=       0 NMicF=      0.
                    Isotopes and Nuclear Properties:
 (Nuclear quadrupole moments (NQMom) in fm**2, nuclear magnetic moments (NMagM)
  in nuclear magnetons)

  Atom         1           2           3           4
 IAtWgt=          23          23          23          23
 AtmWgt=  22.9897697  22.9897697  22.9897697  22.9897697
 NucSpn=           3           3           3           3
 AtZEff=  -0.0000000  -0.0000000  -0.0000000  -0.0000000
 NQMom=   10.4000000  10.4000000  10.4000000  10.4000000
 NMagM=    2.2175200   2.2175200   2.2175200   2.2175200
 AtZNuc=  11.0000000  11.0000000  11.0000000  11.0000000
 Leave Link  101 at Mon Jul  3 12:15:02 2023, MaxMem=  1610612736 cpu:               1.3 elap:               0.2
 (Enter /home/masato/g16/l103.exe)

 GradGradGradGradGradGradGradGradGradGradGradGradGradGradGradGradGradGrad
 Berny optimization.
 Initialization pass.
 Trust Radius=3.00D-01 FncErr=1.00D-07 GrdErr=1.00D-07 EigMax=2.50D+02 EigMin=1.00D-04
 Number of steps in this run=      2 maximum allowed number of steps=      2.
 GradGradGradGradGradGradGradGradGradGradGradGradGradGradGradGradGradGrad

 Leave Link  103 at Mon Jul  3 12:15:02 2023, MaxMem=  1610612736 cpu:               0.1 elap:               0.0
 (Enter /home/masato/g16/l202.exe)
                          Input orientation:                          
 ---------------------------------------------------------------------
 Center     Atomic      Atomic             Coordinates (Angstroms)
 Number     Number       Type             X           Y           Z
 ---------------------------------------------------------------------
      1         11           0        0.000000    0.000000    0.000000
      2         11           0        0.000000    0.000000    2.277141
      3         11           0        0.000000    0.000000    4.511360
      4         11           0        0.000000    0.000000    9.039050
 ---------------------------------------------------------------------
                    Distance matrix (angstroms):
                    1          2          3          4
     1  Na   0.000000
     2  Na   2.277141   0.000000
     3  Na   4.511360   2.234219   0.000000
     4  Na   9.039050   6.761909   4.527690   0.000000
 Stoichiometry    Na4
 Framework group  C*V[C*(NaNaNaNa)]
 Deg. of freedom     3
 Full point group                 C*V     NOp   4
 Largest Abelian subgroup         C2V     NOp   4
 Largest concise Abelian subgroup C1      NOp   1
                         Standard orientation:                         
 ---------------------------------------------------------------------
 Center     Atomic      Atomic             Coordinates (Angstroms)
 Number     Number       Type             X           Y           Z
 ---------------------------------------------------------------------
      1         11           0        0.000000    0.000000   -3.956888
      2         11           0        0.000000    0.000000   -1.679747
      3         11           0        0.000000    0.000000    0.554472
      4         11           0        0.000000    0.000000    5.082162
 ---------------------------------------------------------------------
 Rotational constants (GHZ):           0.0000000           0.4927292           0.4927292
 Leave Link  202 at Mon Jul  3 12:15:02 2023, MaxMem=  1610612736 cpu:               0.0 elap:               0.0
 (Enter /home/masato/g16/l301.exe)
 Standard basis: 6-311+G(d) (5D, 7F)
 Ernie: Thresh=  0.10000D-02 Tol=  0.10000D-05 Strict=F.
 There are    64 symmetry adapted cartesian basis functions of A1  symmetry.
 There are     4 symmetry adapted cartesian basis functions of A2  symmetry.
 There are    28 symmetry adapted cartesian basis functions of B1  symmetry.
 There are    28 symmetry adapted cartesian basis functions of B2  symmetry.
 There are    60 symmetry adapted basis functions of A1  symmetry.
 There are     4 symmetry adapted basis functions of A2  symmetry.
 There are    28 symmetry adapted basis functions of B1  symmetry.
 There are    28 symmetry adapted basis functions of B2  symmetry.
   120 basis functions,   200 primitive gaussians,   124 cartesian basis functions
    22 alpha electrons       22 beta electrons
       nuclear repulsion energy       101.6659420836 Hartrees.
 IExCor=  402 DFT=T Ex+Corr=B3LYP ExCW=0 ScaHFX=  0.200000
 ScaDFX=  0.800000  0.720000  1.000000  0.810000 ScalE2=  1.000000  1.000000
 IRadAn=      5 IRanWt=     -1 IRanGd=            0 ICorTp=0 IEmpDi=  4
 NAtoms=    4 NActive=    4 NUniq=    4 SFac= 1.00D+00 NAtFMM=   60 NAOKFM=F Big=F
 Integral buffers will be    131072 words long.
 Raffenetti 2 integral format.
 Two-electron integral symmetry is turned on.
 Leave Link  301 at Mon Jul  3 12:15:02 2023, MaxMem=  1610612736 cpu:               0.3 elap:               0.0
 (Enter /home/masato/g16/l302.exe)
 NPDir=0 NMtPBC=     1 NCelOv=     1 NCel=       1 NClECP=     1 NCelD=      1
         NCelK=      1 NCelE2=     1 NClLst=     1 CellRange=     0.0.
 One-electron integrals computed using PRISM.
 One-electron integral symmetry used in STVInt
 NBasis=   120 RedAO= T EigKep=  5.77D-05  NBF=    60     4    28    28
 NBsUse=   118 1.00D-06 EigRej=  1.87D-07 NBFU=    58     4    28    28
 Precomputing XC quadrature grid using
 IXCGrd= 4 IRadAn=           5 IRanWt=          -1 IRanGd=           0 AccXCQ= 0.00D+00.
 Generated NRdTot=       0 NPtTot=           0 NUsed=           0 NTot=          32
 NSgBfM=   115   115   115   115   115 MxSgAt=     4 MxSgA2=     4.
 Leave Link  302 at Mon Jul  3 12:15:02 2023, MaxMem=  1610612736 cpu:               1.0 elap:               0.1
 (Enter /home/masato/g16/l303.exe)
 DipDrv:  MaxL=1.
 Leave Link  303 at Mon Jul  3 12:15:02 2023, MaxMem=  1610612736 cpu:               0.2 elap:               0.0
 (Enter /home/masato/g16/l401.exe)
 ExpMin= 7.60D-03 ExpMax= 3.62D+04 ExpMxC= 1.21D+03 IAcc=3 IRadAn=         5 AccDes= 0.00D+00
 Harris functional with IExCor=  402 and IRadAn=       5 diagonalized for initial guess.
 HarFok:  IExCor=  402 AccDes= 0.00D+00 IRadAn=         5 IDoV= 1 UseB2=F ITyADJ=14
 ICtDFT=  3500011 ScaDFX=  1.000000  1.000000  1.000000  1.000000
 FoFCou: FMM=F IPFlag=           0 FMFlag=      100000 FMFlg1=           0
         NFxFlg=           0 DoJE=T BraDBF=F KetDBF=T FulRan=T
         wScrn=  0.000000 ICntrl=       500 IOpCl=  0 I1Cent=   200000004 NGrid=           0
         NMat0=    1 NMatS0=      1 NMatT0=    0 NMatD0=    1 NMtDS0=    0 NMtDT0=    0
 Petite list used in FoFCou.
 Harris En= -649.009923922319    
 JPrj=0 DoOrth=F DoCkMO=F.
 Initial guess orbital symmetries:
       Occupied  (SG) (SG) (SG) (SG) (SG) (SG) (SG) (SG) (SG) (PI)
                 (PI) (SG) (PI) (PI) (PI) (PI) (SG) (SG) (PI) (PI)
                 (SG) (SG)
       Virtual   (SG) (PI) (PI) (SG) (PI) (PI) (SG) (PI) (PI) (SG)
                 (SG) (PI) (PI) (SG) (PI) (PI) (SG) (PI) (PI) (SG)
                 (PI) (PI) (SG) (PI) (PI) (SG) (SG) (SG) (PI) (PI)
                 (SG) (PI) (PI) (PI) (PI) (SG) (SG) (PI) (PI) (SG)
                 (SG) (SG) (SG) (DLTA) (DLTA) (SG) (PI) (PI) (DLTA)
                 (DLTA) (DLTA) (DLTA) (PI) (PI) (PI) (PI) (SG)
                 (SG) (PI) (PI) (DLTA) (DLTA) (PI) (PI) (SG) (PI)
                 (PI) (SG) (SG) (SG) (PI) (PI) (SG) (PI) (PI) (SG)
                 (SG) (SG) (SG) (SG) (PI) (PI) (PI) (PI) (SG) (PI)
                 (PI) (PI) (PI) (SG) (SG) (SG) (SG) (SG) (SG) (SG)
 The electronic state of the initial guess is 1-SG.
 Leave Link  401 at Mon Jul  3 12:15:02 2023, MaxMem=  1610612736 cpu:               1.1 elap:               0.1
 (Enter /home/masato/g16/l502.exe)
 Keep R1 ints in memory in symmetry-blocked form, NReq=33989586.
 FoFCou: FMM=F IPFlag=           0 FMFlag=           0 FMFlg1=           0
         NFxFlg=           0 DoJE=F BraDBF=F KetDBF=F FulRan=T
         wScrn=  0.000000 ICntrl=       600 IOpCl=  0 I1Cent=           0 NGrid=           0
         NMat0=    1 NMatS0=   7260 NMatT0=    0 NMatD0=    1 NMtDS0=    0 NMtDT0=    0
 Petite list used in FoFCou.
 Closed shell SCF:
 Using DIIS extrapolation, IDIIS=  1040.
 NGot=  1610612736 LenX=  1603304448 LenY=  1603288631
 Requested convergence on RMS density matrix=1.00D-08 within 128 cycles.
 Requested convergence on MAX density matrix=1.00D-06.
 Requested convergence on             energy=1.00D-06.
 No special actions if energy rises.

 Cycle   1  Pass 1  IDiag  1:
 E= -649.125715645357    
 DIIS: error= 1.36D-02 at cycle   1 NSaved=   1.
 NSaved= 1 IEnMin= 1 EnMin= -649.125715645357     IErMin= 1 ErrMin= 1.36D-02
 ErrMax= 1.36D-02  0.00D+00 EMaxC= 1.00D-01 BMatC= 2.79D-02 BMatP= 2.79D-02
 IDIUse=3 WtCom= 8.64D-01 WtEn= 1.36D-01
 Coeff-Com:  0.100D+01
 Coeff-En:   0.100D+01
 Coeff:      0.100D+01
 Gap=     0.035 Goal=   None    Shift=    0.000
 GapD=    0.035 DampG=0.250 DampE=0.500 DampFc=0.2500 IDamp=-1.
 Damping current iteration by 2.50D-01
 RMSDP=4.06D-03 MaxDP=1.47D-01              OVMax= 8.70D-02

 Cycle   2  Pass 1  IDiag  1:
 E= -649.129783504993     Delta-E=       -0.004067859636 Rises=F Damp=T
 DIIS: error= 9.61D-03 at cycle   2 NSaved=   2.
 NSaved= 2 IEnMin= 2 EnMin= -649.129783504993     IErMin= 2 ErrMin= 9.61D-03
 ErrMax= 9.61D-03  0.00D+00 EMaxC= 1.00D-01 BMatC= 1.06D-02 BMatP= 2.79D-02
 IDIUse=3 WtCom= 9.04D-01 WtEn= 9.61D-02
 Coeff-Com: -0.127D+01 0.227D+01
 Coeff-En:   0.000D+00 0.100D+01
 Coeff:     -0.115D+01 0.215D+01
 Gap=     0.035 Goal=   None    Shift=    0.000
 RMSDP=3.13D-03 MaxDP=9.63D-02 DE=-4.07D-03 OVMax= 1.17D-01

 Cycle   3  Pass 1  IDiag  1:
 E= -649.136566602614     Delta-E=       -0.006783097621 Rises=F Damp=F
 DIIS: error= 2.33D-03 at cycle   3 NSaved=   3.
 NSaved= 3 IEnMin= 3 EnMin= -649.136566602614     IErMin= 3 ErrMin= 2.33D-03
 ErrMax= 2.33D-03  0.00D+00 EMaxC= 1.00D-01 BMatC= 2.33D-04 BMatP= 1.06D-02
 IDIUse=3 WtCom= 9.77D-01 WtEn= 2.33D-02
 Coeff-Com: -0.502D-01 0.124D+00 0.926D+00
 Coeff-En:   0.000D+00 0.000D+00 0.100D+01
 Coeff:     -0.491D-01 0.121D+00 0.928D+00
 Gap=     0.036 Goal=   None    Shift=    0.000
 RMSDP=3.29D-03 MaxDP=1.60D-01 DE=-6.78D-03 OVMax= 2.54D-01

 Cycle   4  Pass 1  IDiag  1:
 E= -649.125392389896     Delta-E=        0.011174212717 Rises=F Damp=F
 DIIS: error= 6.72D-03 at cycle   4 NSaved=   4.
 NSaved= 4 IEnMin= 3 EnMin= -649.136566602614     IErMin= 3 ErrMin= 2.33D-03
 ErrMax= 6.72D-03  0.00D+00 EMaxC= 1.00D-01 BMatC= 1.58D-03 BMatP= 2.33D-04
 IDIUse=3 WtCom= 1.09D-01 WtEn= 8.91D-01
 Coeff-Com:  0.432D-01-0.550D-01 0.741D+00 0.271D+00
 Coeff-En:   0.000D+00 0.000D+00 0.814D+00 0.186D+00
 Coeff:      0.469D-02-0.598D-02 0.806D+00 0.195D+00
 Gap=     0.036 Goal=   None    Shift=    0.000
 RMSDP=1.79D-03 MaxDP=9.31D-02 DE= 1.12D-02 OVMax= 1.39D-01

 Cycle   5  Pass 1  IDiag  1:
 E= -649.137067000656     Delta-E=       -0.011674610760 Rises=F Damp=F
 DIIS: error= 1.87D-03 at cycle   5 NSaved=   5.
 NSaved= 5 IEnMin= 5 EnMin= -649.137067000656     IErMin= 5 ErrMin= 1.87D-03
 ErrMax= 1.87D-03  0.00D+00 EMaxC= 1.00D-01 BMatC= 1.52D-04 BMatP= 2.33D-04
 IDIUse=3 WtCom= 9.81D-01 WtEn= 1.87D-02
 Coeff-Com: -0.529D-02 0.625D-02 0.378D+00-0.714D-01 0.693D+00
 Coeff-En:   0.000D+00 0.000D+00 0.436D+00 0.000D+00 0.564D+00
 Coeff:     -0.519D-02 0.614D-02 0.379D+00-0.701D-01 0.690D+00
 Gap=     0.036 Goal=   None    Shift=    0.000
 RMSDP=6.30D-04 MaxDP=3.14D-02 DE=-1.17D-02 OVMax= 5.15D-02

 Cycle   6  Pass 1  IDiag  1:
 E= -649.138105323246     Delta-E=       -0.001038322590 Rises=F Damp=F
 DIIS: error= 7.92D-05 at cycle   6 NSaved=   6.
 NSaved= 6 IEnMin= 6 EnMin= -649.138105323246     IErMin= 6 ErrMin= 7.92D-05
 ErrMax= 7.92D-05  0.00D+00 EMaxC= 1.00D-01 BMatC= 2.99D-07 BMatP= 1.52D-04
 IDIUse=1 WtCom= 1.00D+00 WtEn= 0.00D+00
 Coeff-Com: -0.256D-02 0.320D-02 0.568D-01-0.281D-01 0.129D+00 0.842D+00
 Coeff:     -0.256D-02 0.320D-02 0.568D-01-0.281D-01 0.129D+00 0.842D+00
 Gap=     0.037 Goal=   None    Shift=    0.000
 RMSDP=4.07D-05 MaxDP=1.18D-03 DE=-1.04D-03 OVMax= 1.12D-03

 Cycle   7  Pass 1  IDiag  1:
 E= -649.138106493458     Delta-E=       -0.000001170212 Rises=F Damp=F
 DIIS: error= 4.83D-05 at cycle   7 NSaved=   7.
 NSaved= 7 IEnMin= 7 EnMin= -649.138106493458     IErMin= 7 ErrMin= 4.83D-05
 ErrMax= 4.83D-05  0.00D+00 EMaxC= 1.00D-01 BMatC= 6.03D-08 BMatP= 2.99D-07
 IDIUse=1 WtCom= 1.00D+00 WtEn= 0.00D+00
 Coeff-Com: -0.556D-03 0.701D-03 0.872D-02-0.921D-02 0.176D-01 0.274D+00
 Coeff-Com:  0.708D+00
 Coeff:     -0.556D-03 0.701D-03 0.872D-02-0.921D-02 0.176D-01 0.274D+00
 Coeff:      0.708D+00
 Gap=     0.037 Goal=   None    Shift=    0.000
 RMSDP=1.49D-05 MaxDP=6.46D-04 DE=-1.17D-06 OVMax= 1.19D-03

 Cycle   8  Pass 1  IDiag  1:
 E= -649.138106959457     Delta-E=       -0.000000465999 Rises=F Damp=F
 DIIS: error= 6.59D-06 at cycle   8 NSaved=   8.
 NSaved= 8 IEnMin= 8 EnMin= -649.138106959457     IErMin= 8 ErrMin= 6.59D-06
 ErrMax= 6.59D-06  0.00D+00 EMaxC= 1.00D-01 BMatC= 3.92D-09 BMatP= 6.03D-08
 IDIUse=1 WtCom= 1.00D+00 WtEn= 0.00D+00
 Coeff-Com:  0.289D-03-0.398D-03-0.462D-03-0.172D-03-0.887D-02 0.690D-01
 Coeff-Com:  0.309D+00 0.632D+00
 Coeff:      0.289D-03-0.398D-03-0.462D-03-0.172D-03-0.887D-02 0.690D-01
 Coeff:      0.309D+00 0.632D+00
 Gap=     0.037 Goal=   None    Shift=    0.000
 RMSDP=4.43D-06 MaxDP=1.88D-04 DE=-4.66D-07 OVMax= 1.75D-04

 Cycle   9  Pass 1  IDiag  1:
 E= -649.138106969906     Delta-E=       -0.000000010449 Rises=F Damp=F
 DIIS: error= 2.76D-06 at cycle   9 NSaved=   9.
 NSaved= 9 IEnMin= 9 EnMin= -649.138106969906     IErMin= 9 ErrMin= 2.76D-06
 ErrMax= 2.76D-06  0.00D+00 EMaxC= 1.00D-01 BMatC= 2.48D-10 BMatP= 3.92D-09
 IDIUse=1 WtCom= 1.00D+00 WtEn= 0.00D+00
 Coeff-Com:  0.148D-03-0.199D-03-0.198D-02 0.527D-03-0.617D-02 0.108D-02
 Coeff-Com:  0.670D-01 0.222D+00 0.718D+00
 Coeff:      0.148D-03-0.199D-03-0.198D-02 0.527D-03-0.617D-02 0.108D-02
 Coeff:      0.670D-01 0.222D+00 0.718D+00
 Gap=     0.037 Goal=   None    Shift=    0.000
 RMSDP=1.59D-06 MaxDP=3.24D-05 DE=-1.04D-08 OVMax= 6.52D-05

 Cycle  10  Pass 1  IDiag  1:
 E= -649.138106971313     Delta-E=       -0.000000001407 Rises=F Damp=F
 DIIS: error= 6.16D-07 at cycle  10 NSaved=  10.
 NSaved=10 IEnMin=10 EnMin= -649.138106971313     IErMin=10 ErrMin= 6.16D-07
 ErrMax= 6.16D-07  0.00D+00 EMaxC= 1.00D-01 BMatC= 1.10D-11 BMatP= 2.48D-10
 IDIUse=1 WtCom= 1.00D+00 WtEn= 0.00D+00
 Coeff-Com:  0.406D-04-0.545D-04-0.598D-03 0.261D-03-0.141D-02-0.474D-02
 Coeff-Com: -0.579D-03 0.222D-02 0.168D+00 0.837D+00
 Coeff:      0.406D-04-0.545D-04-0.598D-03 0.261D-03-0.141D-02-0.474D-02
 Coeff:     -0.579D-03 0.222D-02 0.168D+00 0.837D+00
 Gap=     0.037 Goal=   None    Shift=    0.000
 RMSDP=4.19D-07 MaxDP=1.24D-05 DE=-1.41D-09 OVMax= 8.64D-06

 Cycle  11  Pass 1  IDiag  1:
 E= -649.138106971358     Delta-E=       -0.000000000045 Rises=F Damp=F
 DIIS: error= 2.21D-07 at cycle  11 NSaved=  11.
 NSaved=11 IEnMin=11 EnMin= -649.138106971358     IErMin=11 ErrMin= 2.21D-07
 ErrMax= 2.21D-07  0.00D+00 EMaxC= 1.00D-01 BMatC= 2.28D-12 BMatP= 1.10D-11
 IDIUse=1 WtCom= 1.00D+00 WtEn= 0.00D+00
 Coeff-Com: -0.362D-05 0.481D-05-0.391D-04 0.144D-04 0.746D-04-0.353D-03
 Coeff-Com: -0.689D-03-0.116D-01-0.142D-01 0.167D+00 0.859D+00
 Coeff:     -0.362D-05 0.481D-05-0.391D-04 0.144D-04 0.746D-04-0.353D-03
 Coeff:     -0.689D-03-0.116D-01-0.142D-01 0.167D+00 0.859D+00
 Gap=     0.037 Goal=   None    Shift=    0.000
 RMSDP=1.20D-07 MaxDP=3.67D-06 DE=-4.51D-11 OVMax= 5.56D-06

 Cycle  12  Pass 1  IDiag  1:
 E= -649.138106971375     Delta-E=       -0.000000000017 Rises=F Damp=F
 DIIS: error= 4.79D-08 at cycle  12 NSaved=  12.
 NSaved=12 IEnMin=12 EnMin= -649.138106971375     IErMin=12 ErrMin= 4.79D-08
 ErrMax= 4.79D-08  0.00D+00 EMaxC= 1.00D-01 BMatC= 5.61D-14 BMatP= 2.28D-12
 IDIUse=1 WtCom= 1.00D+00 WtEn= 0.00D+00
 Coeff-Com: -0.317D-05 0.422D-05 0.527D-05-0.540D-05 0.607D-04 0.141D-03
 Coeff-Com:  0.525D-04-0.235D-02-0.623D-02-0.140D-01 0.245D+00 0.777D+00
 Coeff:     -0.317D-05 0.422D-05 0.527D-05-0.540D-05 0.607D-04 0.141D-03
 Coeff:      0.525D-04-0.235D-02-0.623D-02-0.140D-01 0.245D+00 0.777D+00
 Gap=     0.037 Goal=   None    Shift=    0.000
 RMSDP=2.24D-08 MaxDP=8.31D-07 DE=-1.73D-11 OVMax= 1.24D-06

 Cycle  13  Pass 1  IDiag  1:
 E= -649.138106971375     Delta-E=       -0.000000000000 Rises=F Damp=F
 DIIS: error= 9.41D-09 at cycle  13 NSaved=  13.
 NSaved=13 IEnMin=13 EnMin= -649.138106971375     IErMin=13 ErrMin= 9.41D-09
 ErrMax= 9.41D-09  0.00D+00 EMaxC= 1.00D-01 BMatC= 2.68D-15 BMatP= 5.61D-14
 IDIUse=1 WtCom= 1.00D+00 WtEn= 0.00D+00
 Coeff-Com:  0.517D-06-0.671D-06 0.375D-07 0.654D-06-0.702D-05-0.284D-04
 Coeff-Com: -0.385D-04 0.247D-03 0.612D-03-0.127D-02-0.161D-01 0.795D-02
 Coeff-Com:  0.101D+01
 Coeff:      0.517D-06-0.671D-06 0.375D-07 0.654D-06-0.702D-05-0.284D-04
 Coeff:     -0.385D-04 0.247D-03 0.612D-03-0.127D-02-0.161D-01 0.795D-02
 Coeff:      0.101D+01
 Gap=     0.037 Goal=   None    Shift=    0.000
 RMSDP=6.83D-09 MaxDP=1.84D-07 DE=-2.27D-13 OVMax= 3.44D-07

 SCF Done:  E(RB3LYP) =  -649.138106971     A.U. after   13 cycles
            NFock= 13  Conv=0.68D-08     -V/T= 2.0025
 KE= 6.475391885348D+02 PE=-1.761733421235D+03 EE= 3.633901836454D+02
 Leave Link  502 at Mon Jul  3 12:15:04 2023, MaxMem=  1610612736 cpu:              12.7 elap:               1.7
 (Enter /home/masato/g16/l601.exe)
 Copying SCF densities to generalized density rwf, IOpCl= 0 IROHF=0.

 **********************************************************************

            Population analysis using the SCF Density.

 **********************************************************************

 Orbital symmetries:
       Occupied  (SG) (SG) (SG) (SG) (SG) (SG) (SG) (SG) (SG) (PI)
                 (PI) (SG) (PI) (PI) (PI) (PI) (SG) (PI) (PI) (SG)
                 (SG) (SG)
       Virtual   (SG) (PI) (PI) (SG) (PI) (PI) (SG) (PI) (PI) (SG)
                 (SG) (PI) (PI) (SG) (PI) (PI) (SG) (PI) (PI) (SG)
                 (PI) (PI) (SG) (SG) (PI) (PI) (SG) (SG) (PI) (PI)
                 (SG) (PI) (PI) (PI) (PI) (SG) (SG) (PI) (PI) (SG)
                 (SG) (SG) (SG) (SG) (DLTA) (DLTA) (PI) (PI) (DLTA)
                 (DLTA) (DLTA) (DLTA) (PI) (PI) (PI) (PI) (SG)
                 (SG) (PI) (PI) (PI) (PI) (DLTA) (DLTA) (SG) (PI)
                 (PI) (SG) (SG) (SG) (PI) (PI) (SG) (PI) (PI) (SG)
                 (SG) (SG) (SG) (SG) (PI) (PI) (PI) (PI) (SG) (PI)
                 (PI) (PI) (PI) (SG) (SG) (SG) (SG) (SG) (SG) (SG)
 The electronic state is 1-SG.
 Alpha  occ. eigenvalues --  -38.47801 -38.46976 -38.46944 -38.45602  -2.24081
 Alpha  occ. eigenvalues --   -2.22916  -2.22842  -2.21287  -1.19301  -1.17424
 Alpha  occ. eigenvalues --   -1.17424  -1.16847  -1.16422  -1.16422  -1.16360
 Alpha  occ. eigenvalues --   -1.16360  -1.15759  -1.14965  -1.14965  -1.14914
 Alpha  occ. eigenvalues --   -0.16459  -0.11567
 Alpha virt. eigenvalues --   -0.07915  -0.04336  -0.04336  -0.03161  -0.01642
 Alpha virt. eigenvalues --   -0.01642  -0.00553  -0.00013  -0.00013   0.00304
 Alpha virt. eigenvalues --    0.00451   0.01148   0.01148   0.01403   0.01534
 Alpha virt. eigenvalues --    0.01534   0.01708   0.02379   0.02379   0.02890
 Alpha virt. eigenvalues --    0.03070   0.03070   0.03713   0.04360   0.04442
 Alpha virt. eigenvalues --    0.04442   0.05698   0.06142   0.07088   0.07088
 Alpha virt. eigenvalues --    0.07318   0.08243   0.08243   0.08553   0.08553
 Alpha virt. eigenvalues --    0.08717   0.09998   0.11748   0.11748   0.13007
 Alpha virt. eigenvalues --    0.14615   0.15809   0.17841   0.25670   0.26384
 Alpha virt. eigenvalues --    0.26384   0.28398   0.28398   0.33353   0.33353
 Alpha virt. eigenvalues --    0.34837   0.34837   0.35187   0.35187   0.36062
 Alpha virt. eigenvalues --    0.36062   0.37001   0.39185   0.41705   0.41705
 Alpha virt. eigenvalues --    0.43142   0.43142   0.43173   0.43173   0.43889
 Alpha virt. eigenvalues --    0.45133   0.45133   0.46505   0.48888   0.51561
 Alpha virt. eigenvalues --    0.52575   0.52575   0.70679   0.72135   0.72135
 Alpha virt. eigenvalues --    1.02365   2.03163   2.07913   2.18254   2.30610
 Alpha virt. eigenvalues --    4.40418   4.40418   4.43300   4.43300   4.45846
 Alpha virt. eigenvalues --    4.47085   4.47085   4.48062   4.48062   4.62753
 Alpha virt. eigenvalues --    4.63831   4.88578  96.22601  96.27806  96.43904
 Alpha virt. eigenvalues --   96.54587
          Condensed to atoms (all electrons):
               1          2          3          4
     1  Na  11.370810  -0.173658   0.389803  -0.068290
     2  Na  -0.173658  10.470576  -0.248062   0.135735
     3  Na   0.389803  -0.248062  11.214359  -0.041368
     4  Na  -0.068290   0.135735  -0.041368  10.955936
 Mulliken charges:
               1
     1  Na  -0.518665
     2  Na   0.815409
     3  Na  -0.314733
     4  Na   0.017988
 Sum of Mulliken charges =  -0.00000
 Mulliken charges with hydrogens summed into heavy atoms:
               1
     1  Na  -0.518665
     2  Na   0.815409
     3  Na  -0.314733
     4  Na   0.017988
 Electronic spatial extent (au):  <R**2>=           1836.4419
 Charge=              0.0000 electrons
 Dipole moment (field-independent basis, Debye):
    X=              0.0000    Y=              0.0000    Z=             -1.0751  Tot=              1.0751
 Quadrupole moment (field-independent basis, Debye-Ang):
   XX=            -44.0588   YY=            -44.0588   ZZ=            -24.7509
   XY=              0.0000   XZ=              0.0000   YZ=              0.0000
 Traceless Quadrupole moment (field-independent basis, Debye-Ang):
   XX=             -6.4360   YY=             -6.4360   ZZ=             12.8719
   XY=              0.0000   XZ=              0.0000   YZ=              0.0000
 Octapole moment (field-independent basis, Debye-Ang**2):
  XXX=              0.0000  YYY=              0.0000  ZZZ=             15.2272  XYY=              0.0000
  XXY=              0.0000  XXZ=             -7.5193  XZZ=              0.0000  YZZ=              0.0000
  YYZ=             -7.5193  XYZ=              0.0000
 Hexadecapole moment (field-independent basis, Debye-Ang**3):
 XXXX=           -177.7110 YYYY=           -177.7110 ZZZZ=          -2136.2371 XXXY=              0.0000
 XXXZ=              0.0000 YYYX=              0.0000 YYYZ=              0.0000 ZZZX=              0.0000
 ZZZY=              0.0000 XXYY=            -59.2370 XXZZ=           -540.7392 YYZZ=           -540.7392
 XXYZ=              0.0000 YYXZ=              0.0000 ZZXY=              0.0000
 N-N= 1.016659420836D+02 E-N=-1.761733422371D+03  KE= 6.475391885348D+02
 Symmetry A1   KE= 5.526262887909D+02
 Symmetry A2   KE=-9.391619981494D-53
 Symmetry B1   KE= 4.745644987196D+01
 Symmetry B2   KE= 4.745644987196D+01
 No NMR shielding tensors so no spin-rotation constants.
 Leave Link  601 at Mon Jul  3 12:15:04 2023, MaxMem=  1610612736 cpu:               0.7 elap:               0.1
 (Enter /home/masato/g16/l701.exe)
 ... and contract with generalized density number  0.
 Compute integral first derivatives.
 Leave Link  701 at Mon Jul  3 12:15:04 2023, MaxMem=  1610612736 cpu:               0.7 elap:               0.1
 (Enter /home/masato/g16/l702.exe)
 L702 exits ... SP integral derivatives will be done elsewhere.
 Leave Link  702 at Mon Jul  3 12:15:04 2023, MaxMem=  1610612736 cpu:               0.2 elap:               0.0
 (Enter /home/masato/g16/l703.exe)
 Integral derivatives from FoFJK, PRISM(SPDF).
 Compute integral first derivatives, UseDBF=F ICtDFT=           0.
 Calling FoFJK, ICntrl=      2127 FMM=F ISym2X=1 I1Cent= 0 IOpClX= 0 NMat=1 NMatS=1 NMatT=0.
 FoFJK:  IHMeth= 1 ICntrl=    2127 DoSepK=F KAlg= 0 I1Cent=           0 FoldK=F
 IRaf=         0 NMat=       1 IRICut=       1 DoRegI=T DoRafI=F ISym2E= 1 IDoP0=0 IntGTp=1.
 FoFCou: FMM=F IPFlag=           0 FMFlag=      100000 FMFlg1=         800
         NFxFlg=           0 DoJE=F BraDBF=F KetDBF=F FulRan=T
         wScrn=  0.000000 ICntrl=      2127 IOpCl=  0 I1Cent=           0 NGrid=           0
         NMat0=    1 NMatS0=      1 NMatT0=    0 NMatD0=    1 NMtDS0=    0 NMtDT0=    0
 Petite list used in FoFCou.
 Leave Link  703 at Mon Jul  3 12:15:05 2023, MaxMem=  1610612736 cpu:               4.8 elap:               0.7
 (Enter /home/masato/g16/l716.exe)
 Dipole        = 0.00000000D+00 0.00000000D+00-4.22962083D-01
 ***** Axes restored to original set *****
 -------------------------------------------------------------------
 Center     Atomic                   Forces (Hartrees/Bohr)
 Number     Number              X              Y              Z
 -------------------------------------------------------------------
      1       11          -0.000000000   -0.000000000   -0.034359005
      2       11          -0.000000000   -0.000000000   -0.003414333
      3       11          -0.000000000   -0.000000000    0.044678799
      4       11          -0.000000000   -0.000000000   -0.006905460
 -------------------------------------------------------------------
 Cartesian Forces:  Max     0.044678799 RMS     0.016421732
 Z-matrix is all fixed cartesians, so copy forces.
 Force constants in Cartesian coordinates: 
                1             2             3             4             5 
      1  0.135009D-01
      2  0.000000D+00  0.135009D-01
      3  0.000000D+00  0.000000D+00  0.155280D+00
      4 -0.272612D-01  0.000000D+00  0.000000D+00  0.550460D-01
      5  0.000000D+00 -0.272612D-01  0.000000D+00  0.000000D+00  0.550460D-01
      6  0.000000D+00  0.000000D+00 -0.155280D+00  0.000000D+00  0.000000D+00
      7  0.137603D-01  0.000000D+00  0.000000D+00 -0.277849D-01  0.000000D+00
      8  0.000000D+00  0.137603D-01  0.000000D+00  0.000000D+00 -0.277849D-01
      9  0.000000D+00  0.000000D+00  0.000000D+00  0.000000D+00  0.000000D+00
     10  0.000000D+00  0.000000D+00  0.000000D+00  0.000000D+00  0.000000D+00
     11  0.000000D+00  0.000000D+00  0.000000D+00  0.000000D+00  0.000000D+00
     12  0.000000D+00  0.000000D+00  0.000000D+00  0.000000D+00  0.000000D+00
                6             7             8             9            10 
      6  0.328770D+00
      7  0.000000D+00  0.140246D-01
      8  0.000000D+00  0.000000D+00  0.140246D-01
      9 -0.173490D+00  0.000000D+00  0.000000D+00  0.173490D+00
     10  0.000000D+00  0.000000D+00  0.000000D+00  0.000000D+00  0.100000D+01
     11  0.000000D+00  0.000000D+00  0.000000D+00  0.000000D+00  0.000000D+00
     12  0.000000D+00  0.000000D+00  0.000000D+00  0.000000D+00  0.000000D+00
               11            12 
     11  0.100000D+01
     12  0.000000D+00  0.100000D+01
 Leave Link  716 at Mon Jul  3 12:15:05 2023, MaxMem=  1610612736 cpu:               0.2 elap:               0.0
 (Enter /home/masato/g16/l103.exe)

 GradGradGradGradGradGradGradGradGradGradGradGradGradGradGradGradGradGrad
 Berny optimization.
 Search for a local minimum.
 Step number   1 out of a maximum of    2
 All quantities printed in internal units (Hartrees-Bohrs-Radians)
 Second derivative matrix not updated -- first step.
 The second derivative matrix:
                          X1        Y1        Z1        X2        Y2
           X1           0.01350
           Y1           0.00000   0.01350
           Z1           0.00000   0.00000   0.15528
           X2          -0.02726   0.00000   0.00000   0.05505
           Y2           0.00000  -0.02726   0.00000   0.00000   0.05505
           Z2           0.00000   0.00000  -0.15528   0.00000   0.00000
           X3           0.01376   0.00000   0.00000  -0.02778   0.00000
           Y3           0.00000   0.01376   0.00000   0.00000  -0.02778
           Z3           0.00000   0.00000   0.00000   0.00000   0.00000
           X4           0.00000   0.00000   0.00000   0.00000   0.00000
           Y4           0.00000   0.00000   0.00000   0.00000   0.00000
           Z4           0.00000   0.00000   0.00000   0.00000   0.00000
                          Z2        X3        Y3        Z3        X4
           Z2           0.32877
           X3           0.00000   0.01402
           Y3           0.00000   0.00000   0.01402
           Z3          -0.17349   0.00000   0.00000   0.17349
           X4           0.00000   0.00000   0.00000   0.00000   1.00000
           Y4           0.00000   0.00000   0.00000   0.00000   0.00000
           Z4           0.00000   0.00000   0.00000   0.00000   0.00000
                          Y4        Z4
           Y4           1.00000
           Z4           0.00000   1.00000
 ITU=  0
     Eigenvalues ---    0.08257   0.08257   0.16363   0.17107   0.17107
     Eigenvalues ---    0.49391   0.75000
 Quadratic step=3.398D-01 exceeds max=3.000D-01 adjusted using Lamda=-2.122D-02.
 Angle between NR and scaled steps=   0.33 degrees.
 Angle between quadratic step and forces=   8.74 degrees.
 ClnCor:  largest displacement from symmetrization is 8.72D-17 for atom     3.
 Linear search not attempted -- first point.
 ClnCor:  largest displacement from symmetrization is 3.33D-16 for atom     1.
 B after Tr=     0.000000    0.000000    0.000000
         Rot=    1.000000    0.000000    0.000000    0.000000 Ang=   0.00 deg.
 Variable       Old X    -DE/DX   Delta X   Delta X   Delta X     New X
                                 (Linear)    (Quad)   (Total)
    X1        0.00000  -0.00000   0.00000   0.00000   0.00000   0.00000
    Y1        0.00000  -0.00000   0.00000   0.00000   0.00000   0.00000
    Z1        0.00000  -0.03436   0.00000  -0.20788  -0.20788  -0.20788
    X2        0.00000  -0.00000   0.00000  -0.00000   0.00000   0.00000
    Y2        0.00000  -0.00000   0.00000   0.00000   0.00000   0.00000
    Z2        4.30317  -0.00341   0.00000  -0.00060  -0.00060   4.30257
    X3        0.00000  -0.00000   0.00000   0.00000   0.00000   0.00000
    Y3        0.00000  -0.00000   0.00000   0.00000   0.00000   0.00000
    Z3        8.52523   0.04468   0.00000   0.21743   0.21743   8.74267
    X4        0.00000  -0.00000   0.00000  -0.00000   0.00000   0.00000
    Y4        0.00000  -0.00000   0.00000   0.00000   0.00000   0.00000
    Z4       17.08133  -0.00691   0.00000  -0.00895  -0.00895  17.07237
         Item               Value     Threshold  Converged?
 Maximum Force            0.044679     0.000450     NO 
 RMS     Force            0.016422     0.000300     NO 
 Maximum Displacement     0.217433     0.001800     NO 
 RMS     Displacement     0.086877     0.001200     NO 
 Predicted change in Energy=-9.421465D-03
 GradGradGradGradGradGradGradGradGradGradGradGradGradGradGradGradGradGrad

 Leave Link  103 at Mon Jul  3 12:15:05 2023, MaxMem=  1610612736 cpu:               0.1 elap:               0.0
 (Enter /home/masato/g16/l9999.exe)
 1\1\GINC-MASATO-THINKPAD-T480S\Force\RB3LYP\6-311+G(d)\Na4\MASATO\03-J
 ul-2023\0\\#p B3LYP/6-311+g(d) force\\Test\\0,1\Na,0.,0.,0.\Na,0.,0.,2
 .2771408514\Na,0.,0.,4.5113596354\Na,0.,0.,9.0390497408\\Version=ES64L
 -G16RevB.01\State=1-SG\HF=-649.138107\RMSD=6.831e-09\RMSF=1.642e-02\Di
 pole=0.,0.,-0.4229621\Quadrupole=-4.7849761,-4.7849761,9.5699523,0.,0.
 ,0.\PG=C*V [C*(Na1Na1Na1Na1)]\\@


 KINETICS       FACT
 ---------  =  -------
 MECHANISM     FICTION
 Job cpu time:       0 days  0 hours  0 minutes 24.1 seconds.
 Elapsed time:       0 days  0 hours  0 minutes  3.2 seconds.
 File lengths (MBytes):  RWF=     11 Int=      0 D2E=      0 Chk=      2 Scr=      1
 Normal termination of Gaussian 16 at Mon Jul  3 12:15:05 2023.
 Initial command:
 /home/masato/g16/l1.exe "/home/masato/g16temp/Gau-38813.inp" -scrdir="/home/masato/g16temp/"
 Entering Link 1 = /home/masato/g16/l1.exe PID=     38816.
  
 Copyright (c) 1988-2017, Gaussian, Inc.  All Rights Reserved.
  
 This is part of the Gaussian(R) 16 program.  It is based on
 the Gaussian(R) 09 system (copyright 2009, Gaussian, Inc.),
 the Gaussian(R) 03 system (copyright 2003, Gaussian, Inc.),
 the Gaussian(R) 98 system (copyright 1998, Gaussian, Inc.),
 the Gaussian(R) 94 system (copyright 1995, Gaussian, Inc.),
 the Gaussian 92(TM) system (copyright 1992, Gaussian, Inc.),
 the Gaussian 90(TM) system (copyright 1990, Gaussian, Inc.),
 the Gaussian 88(TM) system (copyright 1988, Gaussian, Inc.),
 the Gaussian 86(TM) system (copyright 1986, Carnegie Mellon
 University), and the Gaussian 82(TM) system (copyright 1983,
 Carnegie Mellon University). Gaussian is a federally registered
 trademark of Gaussian, Inc.
  
 This software contains proprietary and confidential information,
 including trade secrets, belonging to Gaussian, Inc.
  
 This software is provided under written license and may be
 used, copied, transmitted, or stored only in accord with that
 written license.
  
 The following legend is applicable only to US Government
 contracts under FAR:
  
                    RESTRICTED RIGHTS LEGEND
  
 Use, reproduction and disclosure by the US Government is
 subject to restrictions as set forth in subparagraphs (a)
 and (c) of the Commercial Computer Software - Restricted
 Rights clause in FAR 52.227-19.
  
 Gaussian, Inc.
 340 Quinnipiac St., Bldg. 40, Wallingford CT 06492
  
  
 ---------------------------------------------------------------
 Warning -- This program may not be used in any manner that
 competes with the business of Gaussian, Inc. or will provide
 assistance to any competitor of Gaussian, Inc.  The licensee
 of this program is prohibited from giving any competitor of
 Gaussian, Inc. access to this program.  By using this program,
 the user acknowledges that Gaussian, Inc. is engaged in the
 business of creating and licensing software in the field of
 computational chemistry and represents and warrants to the
 licensee that it is not a competitor of Gaussian, Inc. and that
 it will not use this program in any manner prohibited above.
 ---------------------------------------------------------------
  

 Cite this work as:
 Gaussian 16, Revision B.01,
 M. J. Frisch, G. W. Trucks, H. B. Schlegel, G. E. Scuseria, 
 M. A. Robb, J. R. Cheeseman, G. Scalmani, V. Barone, 
 G. A. Petersson, H. Nakatsuji, X. Li, M. Caricato, A. V. Marenich, 
 J. Bloino, B. G. Janesko, R. Gomperts, B. Mennucci, H. P. Hratchian, 
 J. V. Ortiz, A. F. Izmaylov, J. L. Sonnenberg, D. Williams-Young, 
 F. Ding, F. Lipparini, F. Egidi, J. Goings, B. Peng, A. Petrone, 
 T. Henderson, D. Ranasinghe, V. G. Zakrzewski, J. Gao, N. Rega, 
 G. Zheng, W. Liang, M. Hada, M. Ehara, K. Toyota, R. Fukuda, 
 J. Hasegawa, M. Ishida, T. Nakajima, Y. Honda, O. Kitao, H. Nakai, 
 T. Vreven, K. Throssell, J. A. Montgomery, Jr., J. E. Peralta, 
 F. Ogliaro, M. J. Bearpark, J. J. Heyd, E. N. Brothers, K. N. Kudin, 
 V. N. Staroverov, T. A. Keith, R. Kobayashi, J. Normand, 
 K. Raghavachari, A. P. Rendell, J. C. Burant, S. S. Iyengar, 
 J. Tomasi, M. Cossi, J. M. Millam, M. Klene, C. Adamo, R. Cammi, 
 J. W. Ochterski, R. L. Martin, K. Morokuma, O. Farkas, 
 J. B. Foresman, and D. J. Fox, Gaussian, Inc., Wallingford CT, 2016.
 
 ******************************************
 Gaussian 16:  ES64L-G16RevB.01 20-Dec-2017
                 3-Jul-2023 
 ******************************************
 %NProcShared=8
 Will use up to    8 processors via shared memory.
 %mem=12GB
 %Chk=checkpoint.chk
 -------------------------
 #p B3LYP/6-311+g(d) force
 -------------------------
 1/10=7,30=1,38=1/1,3;
 2/12=2,17=6,18=5,40=1/2;
 3/5=4,6=6,7=11,11=2,25=1,30=1,71=1,74=-5/1,2,3;
 4//1;
 5/5=2,38=5/2;
 6/7=2,8=2,9=2,10=2,28=1/1;
 7/29=1/1,2,3,16;
 1/10=7,30=1/3;
 99//99;
 Leave Link    1 at Mon Jul  3 12:15:02 2023, MaxMem=  1610612736 cpu:               0.2 elap:               0.0
 (Enter /home/masato/g16/l101.exe)
 ----
 Test
 ----
 Symbolic Z-matrix:
 Charge =  0 Multiplicity = 1
 Na                    0.        0.        0. 
 Na                    0.        0.        2.27714 
 Na                    0.        0.        4.51136 
 Na                    0.        0.        9.03905 
 
 ITRead=  0  0  0  0
 MicOpt= -1 -1 -1 -1
 NAtoms=      4 NQM=        4 NQMF=       0 NMMI=      0 NMMIF=      0
                NMic=       0 NMicF=      0.
                    Isotopes and Nuclear Properties:
 (Nuclear quadrupole moments (NQMom) in fm**2, nuclear magnetic moments (NMagM)
  in nuclear magnetons)

  Atom         1           2           3           4
 IAtWgt=          23          23          23          23
 AtmWgt=  22.9897697  22.9897697  22.9897697  22.9897697
 NucSpn=           3           3           3           3
 AtZEff=  -0.0000000  -0.0000000  -0.0000000  -0.0000000
 NQMom=   10.4000000  10.4000000  10.4000000  10.4000000
 NMagM=    2.2175200   2.2175200   2.2175200   2.2175200
 AtZNuc=  11.0000000  11.0000000  11.0000000  11.0000000
 Leave Link  101 at Mon Jul  3 12:15:02 2023, MaxMem=  1610612736 cpu:               1.3 elap:               0.2
 (Enter /home/masato/g16/l103.exe)

 GradGradGradGradGradGradGradGradGradGradGradGradGradGradGradGradGradGrad
 Berny optimization.
 Initialization pass.
 Trust Radius=3.00D-01 FncErr=1.00D-07 GrdErr=1.00D-07 EigMax=2.50D+02 EigMin=1.00D-04
 Number of steps in this run=      2 maximum allowed number of steps=      2.
 GradGradGradGradGradGradGradGradGradGradGradGradGradGradGradGradGradGrad

 Leave Link  103 at Mon Jul  3 12:15:02 2023, MaxMem=  1610612736 cpu:               0.1 elap:               0.0
 (Enter /home/masato/g16/l202.exe)
                          Input orientation:                          
 ---------------------------------------------------------------------
 Center     Atomic      Atomic             Coordinates (Angstroms)
 Number     Number       Type             X           Y           Z
 ---------------------------------------------------------------------
      1         11           0        0.000000    0.000000    0.000000
      2         11           0        0.000000    0.000000    2.277141
      3         11           0        0.000000    0.000000    4.511360
      4         11           0        0.000000    0.000000    9.039050
 ---------------------------------------------------------------------
                    Distance matrix (angstroms):
                    1          2          3          4
     1  Na   0.000000
     2  Na   2.277141   0.000000
     3  Na   4.511360   2.234219   0.000000
     4  Na   9.039050   6.761909   4.527690   0.000000
 Stoichiometry    Na4
 Framework group  C*V[C*(NaNaNaNa)]
 Deg. of freedom     3
 Full point group                 C*V     NOp   4
 Largest Abelian subgroup         C2V     NOp   4
 Largest concise Abelian subgroup C1      NOp   1
                         Standard orientation:                         
 ---------------------------------------------------------------------
 Center     Atomic      Atomic             Coordinates (Angstroms)
 Number     Number       Type             X           Y           Z
 ---------------------------------------------------------------------
      1         11           0        0.000000    0.000000   -3.956888
      2         11           0        0.000000    0.000000   -1.679747
      3         11           0        0.000000    0.000000    0.554472
      4         11           0        0.000000    0.000000    5.082162
 ---------------------------------------------------------------------
 Rotational constants (GHZ):           0.0000000           0.4927292           0.4927292
 Leave Link  202 at Mon Jul  3 12:15:02 2023, MaxMem=  1610612736 cpu:               0.0 elap:               0.0
 (Enter /home/masato/g16/l301.exe)
 Standard basis: 6-311+G(d) (5D, 7F)
 Ernie: Thresh=  0.10000D-02 Tol=  0.10000D-05 Strict=F.
 There are    64 symmetry adapted cartesian basis functions of A1  symmetry.
 There are     4 symmetry adapted cartesian basis functions of A2  symmetry.
 There are    28 symmetry adapted cartesian basis functions of B1  symmetry.
 There are    28 symmetry adapted cartesian basis functions of B2  symmetry.
 There are    60 symmetry adapted basis functions of A1  symmetry.
 There are     4 symmetry adapted basis functions of A2  symmetry.
 There are    28 symmetry adapted basis functions of B1  symmetry.
 There are    28 symmetry adapted basis functions of B2  symmetry.
   120 basis functions,   200 primitive gaussians,   124 cartesian basis functions
    22 alpha electrons       22 beta electrons
       nuclear repulsion energy       101.6659420836 Hartrees.
 IExCor=  402 DFT=T Ex+Corr=B3LYP ExCW=0 ScaHFX=  0.200000
 ScaDFX=  0.800000  0.720000  1.000000  0.810000 ScalE2=  1.000000  1.000000
 IRadAn=      5 IRanWt=     -1 IRanGd=            0 ICorTp=0 IEmpDi=  4
 NAtoms=    4 NActive=    4 NUniq=    4 SFac= 1.00D+00 NAtFMM=   60 NAOKFM=F Big=F
 Integral buffers will be    131072 words long.
 Raffenetti 2 integral format.
 Two-electron integral symmetry is turned on.
 Leave Link  301 at Mon Jul  3 12:15:02 2023, MaxMem=  1610612736 cpu:               0.3 elap:               0.0
 (Enter /home/masato/g16/l302.exe)
 NPDir=0 NMtPBC=     1 NCelOv=     1 NCel=       1 NClECP=     1 NCelD=      1
         NCelK=      1 NCelE2=     1 NClLst=     1 CellRange=     0.0.
 One-electron integrals computed using PRISM.
 One-electron integral symmetry used in STVInt
 NBasis=   120 RedAO= T EigKep=  5.77D-05  NBF=    60     4    28    28
 NBsUse=   118 1.00D-06 EigRej=  1.87D-07 NBFU=    58     4    28    28
 Precomputing XC quadrature grid using
 IXCGrd= 4 IRadAn=           5 IRanWt=          -1 IRanGd=           0 AccXCQ= 0.00D+00.
 Generated NRdTot=       0 NPtTot=           0 NUsed=           0 NTot=          32
 NSgBfM=   115   115   115   115   115 MxSgAt=     4 MxSgA2=     4.
 Leave Link  302 at Mon Jul  3 12:15:02 2023, MaxMem=  1610612736 cpu:               1.0 elap:               0.1
 (Enter /home/masato/g16/l303.exe)
 DipDrv:  MaxL=1.
 Leave Link  303 at Mon Jul  3 12:15:02 2023, MaxMem=  1610612736 cpu:               0.2 elap:               0.0
 (Enter /home/masato/g16/l401.exe)
 ExpMin= 7.60D-03 ExpMax= 3.62D+04 ExpMxC= 1.21D+03 IAcc=3 IRadAn=         5 AccDes= 0.00D+00
 Harris functional with IExCor=  402 and IRadAn=       5 diagonalized for initial guess.
 HarFok:  IExCor=  402 AccDes= 0.00D+00 IRadAn=         5 IDoV= 1 UseB2=F ITyADJ=14
 ICtDFT=  3500011 ScaDFX=  1.000000  1.000000  1.000000  1.000000
 FoFCou: FMM=F IPFlag=           0 FMFlag=      100000 FMFlg1=           0
         NFxFlg=           0 DoJE=T BraDBF=F KetDBF=T FulRan=T
         wScrn=  0.000000 ICntrl=       500 IOpCl=  0 I1Cent=   200000004 NGrid=           0
         NMat0=    1 NMatS0=      1 NMatT0=    0 NMatD0=    1 NMtDS0=    0 NMtDT0=    0
 Petite list used in FoFCou.
 Harris En= -649.009923922319    
 JPrj=0 DoOrth=F DoCkMO=F.
 Initial guess orbital symmetries:
       Occupied  (SG) (SG) (SG) (SG) (SG) (SG) (SG) (SG) (SG) (PI)
                 (PI) (SG) (PI) (PI) (PI) (PI) (SG) (SG) (PI) (PI)
                 (SG) (SG)
       Virtual   (SG) (PI) (PI) (SG) (PI) (PI) (SG) (PI) (PI) (SG)
                 (SG) (PI) (PI) (SG) (PI) (PI) (SG) (PI) (PI) (SG)
                 (PI) (PI) (SG) (PI) (PI) (SG) (SG) (SG) (PI) (PI)
                 (SG) (PI) (PI) (PI) (PI) (SG) (SG) (PI) (PI) (SG)
                 (SG) (SG) (SG) (DLTA) (DLTA) (SG) (PI) (PI) (DLTA)
                 (DLTA) (DLTA) (DLTA) (PI) (PI) (PI) (PI) (SG)
                 (SG) (PI) (PI) (DLTA) (DLTA) (PI) (PI) (SG) (PI)
                 (PI) (SG) (SG) (SG) (PI) (PI) (SG) (PI) (PI) (SG)
                 (SG) (SG) (SG) (SG) (PI) (PI) (PI) (PI) (SG) (PI)
                 (PI) (PI) (PI) (SG) (SG) (SG) (SG) (SG) (SG) (SG)
 The electronic state of the initial guess is 1-SG.
 Leave Link  401 at Mon Jul  3 12:15:02 2023, MaxMem=  1610612736 cpu:               1.1 elap:               0.1
 (Enter /home/masato/g16/l502.exe)
 Keep R1 ints in memory in symmetry-blocked form, NReq=33989586.
 FoFCou: FMM=F IPFlag=           0 FMFlag=           0 FMFlg1=           0
         NFxFlg=           0 DoJE=F BraDBF=F KetDBF=F FulRan=T
         wScrn=  0.000000 ICntrl=       600 IOpCl=  0 I1Cent=           0 NGrid=           0
         NMat0=    1 NMatS0=   7260 NMatT0=    0 NMatD0=    1 NMtDS0=    0 NMtDT0=    0
 Petite list used in FoFCou.
 Closed shell SCF:
 Using DIIS extrapolation, IDIIS=  1040.
 NGot=  1610612736 LenX=  1603304448 LenY=  1603288631
 Requested convergence on RMS density matrix=1.00D-08 within 128 cycles.
 Requested convergence on MAX density matrix=1.00D-06.
 Requested convergence on             energy=1.00D-06.
 No special actions if energy rises.

 Cycle   1  Pass 1  IDiag  1:
 E= -649.125715645357    
 DIIS: error= 1.36D-02 at cycle   1 NSaved=   1.
 NSaved= 1 IEnMin= 1 EnMin= -649.125715645357     IErMin= 1 ErrMin= 1.36D-02
 ErrMax= 1.36D-02  0.00D+00 EMaxC= 1.00D-01 BMatC= 2.79D-02 BMatP= 2.79D-02
 IDIUse=3 WtCom= 8.64D-01 WtEn= 1.36D-01
 Coeff-Com:  0.100D+01
 Coeff-En:   0.100D+01
 Coeff:      0.100D+01
 Gap=     0.035 Goal=   None    Shift=    0.000
 GapD=    0.035 DampG=0.250 DampE=0.500 DampFc=0.2500 IDamp=-1.
 Damping current iteration by 2.50D-01
 RMSDP=4.06D-03 MaxDP=1.47D-01              OVMax= 8.70D-02

 Cycle   2  Pass 1  IDiag  1:
 E= -649.129783504993     Delta-E=       -0.004067859636 Rises=F Damp=T
 DIIS: error= 9.61D-03 at cycle   2 NSaved=   2.
 NSaved= 2 IEnMin= 2 EnMin= -649.129783504993     IErMin= 2 ErrMin= 9.61D-03
 ErrMax= 9.61D-03  0.00D+00 EMaxC= 1.00D-01 BMatC= 1.06D-02 BMatP= 2.79D-02
 IDIUse=3 WtCom= 9.04D-01 WtEn= 9.61D-02
 Coeff-Com: -0.127D+01 0.227D+01
 Coeff-En:   0.000D+00 0.100D+01
 Coeff:     -0.115D+01 0.215D+01
 Gap=     0.035 Goal=   None    Shift=    0.000
 RMSDP=3.13D-03 MaxDP=9.63D-02 DE=-4.07D-03 OVMax= 1.17D-01

 Cycle   3  Pass 1  IDiag  1:
 E= -649.136566602614     Delta-E=       -0.006783097621 Rises=F Damp=F
 DIIS: error= 2.33D-03 at cycle   3 NSaved=   3.
 NSaved= 3 IEnMin= 3 EnMin= -649.136566602614     IErMin= 3 ErrMin= 2.33D-03
 ErrMax= 2.33D-03  0.00D+00 EMaxC= 1.00D-01 BMatC= 2.33D-04 BMatP= 1.06D-02
 IDIUse=3 WtCom= 9.77D-01 WtEn= 2.33D-02
 Coeff-Com: -0.502D-01 0.124D+00 0.926D+00
 Coeff-En:   0.000D+00 0.000D+00 0.100D+01
 Coeff:     -0.491D-01 0.121D+00 0.928D+00
 Gap=     0.036 Goal=   None    Shift=    0.000
 RMSDP=3.29D-03 MaxDP=1.60D-01 DE=-6.78D-03 OVMax= 2.54D-01

 Cycle   4  Pass 1  IDiag  1:
 E= -649.125392389896     Delta-E=        0.011174212717 Rises=F Damp=F
 DIIS: error= 6.72D-03 at cycle   4 NSaved=   4.
 NSaved= 4 IEnMin= 3 EnMin= -649.136566602614     IErMin= 3 ErrMin= 2.33D-03
 ErrMax= 6.72D-03  0.00D+00 EMaxC= 1.00D-01 BMatC= 1.58D-03 BMatP= 2.33D-04
 IDIUse=3 WtCom= 1.09D-01 WtEn= 8.91D-01
 Coeff-Com:  0.432D-01-0.550D-01 0.741D+00 0.271D+00
 Coeff-En:   0.000D+00 0.000D+00 0.814D+00 0.186D+00
 Coeff:      0.469D-02-0.598D-02 0.806D+00 0.195D+00
 Gap=     0.036 Goal=   None    Shift=    0.000
 RMSDP=1.79D-03 MaxDP=9.31D-02 DE= 1.12D-02 OVMax= 1.39D-01

 Cycle   5  Pass 1  IDiag  1:
 E= -649.137067000656     Delta-E=       -0.011674610760 Rises=F Damp=F
 DIIS: error= 1.87D-03 at cycle   5 NSaved=   5.
 NSaved= 5 IEnMin= 5 EnMin= -649.137067000656     IErMin= 5 ErrMin= 1.87D-03
 ErrMax= 1.87D-03  0.00D+00 EMaxC= 1.00D-01 BMatC= 1.52D-04 BMatP= 2.33D-04
 IDIUse=3 WtCom= 9.81D-01 WtEn= 1.87D-02
 Coeff-Com: -0.529D-02 0.625D-02 0.378D+00-0.714D-01 0.693D+00
 Coeff-En:   0.000D+00 0.000D+00 0.436D+00 0.000D+00 0.564D+00
 Coeff:     -0.519D-02 0.614D-02 0.379D+00-0.701D-01 0.690D+00
 Gap=     0.036 Goal=   None    Shift=    0.000
 RMSDP=6.30D-04 MaxDP=3.14D-02 DE=-1.17D-02 OVMax= 5.15D-02

 Cycle   6  Pass 1  IDiag  1:
 E= -649.138105323246     Delta-E=       -0.001038322590 Rises=F Damp=F
 DIIS: error= 7.92D-05 at cycle   6 NSaved=   6.
 NSaved= 6 IEnMin= 6 EnMin= -649.138105323246     IErMin= 6 ErrMin= 7.92D-05
 ErrMax= 7.92D-05  0.00D+00 EMaxC= 1.00D-01 BMatC= 2.99D-07 BMatP= 1.52D-04
 IDIUse=1 WtCom= 1.00D+00 WtEn= 0.00D+00
 Coeff-Com: -0.256D-02 0.320D-02 0.568D-01-0.281D-01 0.129D+00 0.842D+00
 Coeff:     -0.256D-02 0.320D-02 0.568D-01-0.281D-01 0.129D+00 0.842D+00
 Gap=     0.037 Goal=   None    Shift=    0.000
 RMSDP=4.07D-05 MaxDP=1.18D-03 DE=-1.04D-03 OVMax= 1.12D-03

 Cycle   7  Pass 1  IDiag  1:
 E= -649.138106493458     Delta-E=       -0.000001170212 Rises=F Damp=F
 DIIS: error= 4.83D-05 at cycle   7 NSaved=   7.
 NSaved= 7 IEnMin= 7 EnMin= -649.138106493458     IErMin= 7 ErrMin= 4.83D-05
 ErrMax= 4.83D-05  0.00D+00 EMaxC= 1.00D-01 BMatC= 6.03D-08 BMatP= 2.99D-07
 IDIUse=1 WtCom= 1.00D+00 WtEn= 0.00D+00
 Coeff-Com: -0.556D-03 0.701D-03 0.872D-02-0.921D-02 0.176D-01 0.274D+00
 Coeff-Com:  0.708D+00
 Coeff:     -0.556D-03 0.701D-03 0.872D-02-0.921D-02 0.176D-01 0.274D+00
 Coeff:      0.708D+00
 Gap=     0.037 Goal=   None    Shift=    0.000
 RMSDP=1.49D-05 MaxDP=6.46D-04 DE=-1.17D-06 OVMax= 1.19D-03

 Cycle   8  Pass 1  IDiag  1:
 E= -649.138106959457     Delta-E=       -0.000000465999 Rises=F Damp=F
 DIIS: error= 6.59D-06 at cycle   8 NSaved=   8.
 NSaved= 8 IEnMin= 8 EnMin= -649.138106959457     IErMin= 8 ErrMin= 6.59D-06
 ErrMax= 6.59D-06  0.00D+00 EMaxC= 1.00D-01 BMatC= 3.92D-09 BMatP= 6.03D-08
 IDIUse=1 WtCom= 1.00D+00 WtEn= 0.00D+00
 Coeff-Com:  0.289D-03-0.398D-03-0.462D-03-0.172D-03-0.887D-02 0.690D-01
 Coeff-Com:  0.309D+00 0.632D+00
 Coeff:      0.289D-03-0.398D-03-0.462D-03-0.172D-03-0.887D-02 0.690D-01
 Coeff:      0.309D+00 0.632D+00
 Gap=     0.037 Goal=   None    Shift=    0.000
 RMSDP=4.43D-06 MaxDP=1.88D-04 DE=-4.66D-07 OVMax= 1.75D-04

 Cycle   9  Pass 1  IDiag  1:
 E= -649.138106969906     Delta-E=       -0.000000010449 Rises=F Damp=F
 DIIS: error= 2.76D-06 at cycle   9 NSaved=   9.
 NSaved= 9 IEnMin= 9 EnMin= -649.138106969906     IErMin= 9 ErrMin= 2.76D-06
 ErrMax= 2.76D-06  0.00D+00 EMaxC= 1.00D-01 BMatC= 2.48D-10 BMatP= 3.92D-09
 IDIUse=1 WtCom= 1.00D+00 WtEn= 0.00D+00
 Coeff-Com:  0.148D-03-0.199D-03-0.198D-02 0.527D-03-0.617D-02 0.108D-02
 Coeff-Com:  0.670D-01 0.222D+00 0.718D+00
 Coeff:      0.148D-03-0.199D-03-0.198D-02 0.527D-03-0.617D-02 0.108D-02
 Coeff:      0.670D-01 0.222D+00 0.718D+00
 Gap=     0.037 Goal=   None    Shift=    0.000
 RMSDP=1.59D-06 MaxDP=3.24D-05 DE=-1.04D-08 OVMax= 6.52D-05

 Cycle  10  Pass 1  IDiag  1:
 E= -649.138106971313     Delta-E=       -0.000000001407 Rises=F Damp=F
 DIIS: error= 6.16D-07 at cycle  10 NSaved=  10.
 NSaved=10 IEnMin=10 EnMin= -649.138106971313     IErMin=10 ErrMin= 6.16D-07
 ErrMax= 6.16D-07  0.00D+00 EMaxC= 1.00D-01 BMatC= 1.10D-11 BMatP= 2.48D-10
 IDIUse=1 WtCom= 1.00D+00 WtEn= 0.00D+00
 Coeff-Com:  0.406D-04-0.545D-04-0.598D-03 0.261D-03-0.141D-02-0.474D-02
 Coeff-Com: -0.579D-03 0.222D-02 0.168D+00 0.837D+00
 Coeff:      0.406D-04-0.545D-04-0.598D-03 0.261D-03-0.141D-02-0.474D-02
 Coeff:     -0.579D-03 0.222D-02 0.168D+00 0.837D+00
 Gap=     0.037 Goal=   None    Shift=    0.000
 RMSDP=4.19D-07 MaxDP=1.24D-05 DE=-1.41D-09 OVMax= 8.64D-06

 Cycle  11  Pass 1  IDiag  1:
 E= -649.138106971358     Delta-E=       -0.000000000045 Rises=F Damp=F
 DIIS: error= 2.21D-07 at cycle  11 NSaved=  11.
 NSaved=11 IEnMin=11 EnMin= -649.138106971358     IErMin=11 ErrMin= 2.21D-07
 ErrMax= 2.21D-07  0.00D+00 EMaxC= 1.00D-01 BMatC= 2.28D-12 BMatP= 1.10D-11
 IDIUse=1 WtCom= 1.00D+00 WtEn= 0.00D+00
 Coeff-Com: -0.362D-05 0.481D-05-0.391D-04 0.144D-04 0.746D-04-0.353D-03
 Coeff-Com: -0.689D-03-0.116D-01-0.142D-01 0.167D+00 0.859D+00
 Coeff:     -0.362D-05 0.481D-05-0.391D-04 0.144D-04 0.746D-04-0.353D-03
 Coeff:     -0.689D-03-0.116D-01-0.142D-01 0.167D+00 0.859D+00
 Gap=     0.037 Goal=   None    Shift=    0.000
 RMSDP=1.20D-07 MaxDP=3.67D-06 DE=-4.51D-11 OVMax= 5.56D-06

 Cycle  12  Pass 1  IDiag  1:
 E= -649.138106971375     Delta-E=       -0.000000000017 Rises=F Damp=F
 DIIS: error= 4.79D-08 at cycle  12 NSaved=  12.
 NSaved=12 IEnMin=12 EnMin= -649.138106971375     IErMin=12 ErrMin= 4.79D-08
 ErrMax= 4.79D-08  0.00D+00 EMaxC= 1.00D-01 BMatC= 5.61D-14 BMatP= 2.28D-12
 IDIUse=1 WtCom= 1.00D+00 WtEn= 0.00D+00
 Coeff-Com: -0.317D-05 0.422D-05 0.527D-05-0.540D-05 0.607D-04 0.141D-03
 Coeff-Com:  0.525D-04-0.235D-02-0.623D-02-0.140D-01 0.245D+00 0.777D+00
 Coeff:     -0.317D-05 0.422D-05 0.527D-05-0.540D-05 0.607D-04 0.141D-03
 Coeff:      0.525D-04-0.235D-02-0.623D-02-0.140D-01 0.245D+00 0.777D+00
 Gap=     0.037 Goal=   None    Shift=    0.000
 RMSDP=2.24D-08 MaxDP=8.31D-07 DE=-1.73D-11 OVMax= 1.24D-06

 Cycle  13  Pass 1  IDiag  1:
 E= -649.138106971375     Delta-E=       -0.000000000000 Rises=F Damp=F
 DIIS: error= 9.41D-09 at cycle  13 NSaved=  13.
 NSaved=13 IEnMin=13 EnMin= -649.138106971375     IErMin=13 ErrMin= 9.41D-09
 ErrMax= 9.41D-09  0.00D+00 EMaxC= 1.00D-01 BMatC= 2.68D-15 BMatP= 5.61D-14
 IDIUse=1 WtCom= 1.00D+00 WtEn= 0.00D+00
 Coeff-Com:  0.517D-06-0.671D-06 0.375D-07 0.654D-06-0.702D-05-0.284D-04
 Coeff-Com: -0.385D-04 0.247D-03 0.612D-03-0.127D-02-0.161D-01 0.795D-02
 Coeff-Com:  0.101D+01
 Coeff:      0.517D-06-0.671D-06 0.375D-07 0.654D-06-0.702D-05-0.284D-04
 Coeff:     -0.385D-04 0.247D-03 0.612D-03-0.127D-02-0.161D-01 0.795D-02
 Coeff:      0.101D+01
 Gap=     0.037 Goal=   None    Shift=    0.000
 RMSDP=6.83D-09 MaxDP=1.84D-07 DE=-2.27D-13 OVMax= 3.44D-07

 SCF Done:  E(RB3LYP) =  -649.138106971     A.U. after   13 cycles
            NFock= 13  Conv=0.68D-08     -V/T= 2.0025
 KE= 6.475391885348D+02 PE=-1.761733421235D+03 EE= 3.633901836454D+02
 Leave Link  502 at Mon Jul  3 12:15:04 2023, MaxMem=  1610612736 cpu:              12.7 elap:               1.7
 (Enter /home/masato/g16/l601.exe)
 Copying SCF densities to generalized density rwf, IOpCl= 0 IROHF=0.

 **********************************************************************

            Population analysis using the SCF Density.

 **********************************************************************

 Orbital symmetries:
       Occupied  (SG) (SG) (SG) (SG) (SG) (SG) (SG) (SG) (SG) (PI)
                 (PI) (SG) (PI) (PI) (PI) (PI) (SG) (PI) (PI) (SG)
                 (SG) (SG)
       Virtual   (SG) (PI) (PI) (SG) (PI) (PI) (SG) (PI) (PI) (SG)
                 (SG) (PI) (PI) (SG) (PI) (PI) (SG) (PI) (PI) (SG)
                 (PI) (PI) (SG) (SG) (PI) (PI) (SG) (SG) (PI) (PI)
                 (SG) (PI) (PI) (PI) (PI) (SG) (SG) (PI) (PI) (SG)
                 (SG) (SG) (SG) (SG) (DLTA) (DLTA) (PI) (PI) (DLTA)
                 (DLTA) (DLTA) (DLTA) (PI) (PI) (PI) (PI) (SG)
                 (SG) (PI) (PI) (PI) (PI) (DLTA) (DLTA) (SG) (PI)
                 (PI) (SG) (SG) (SG) (PI) (PI) (SG) (PI) (PI) (SG)
                 (SG) (SG) (SG) (SG) (PI) (PI) (PI) (PI) (SG) (PI)
                 (PI) (PI) (PI) (SG) (SG) (SG) (SG) (SG) (SG) (SG)
 The electronic state is 1-SG.
 Alpha  occ. eigenvalues --  -38.47801 -38.46976 -38.46944 -38.45602  -2.24081
 Alpha  occ. eigenvalues --   -2.22916  -2.22842  -2.21287  -1.19301  -1.17424
 Alpha  occ. eigenvalues --   -1.17424  -1.16847  -1.16422  -1.16422  -1.16360
 Alpha  occ. eigenvalues --   -1.16360  -1.15759  -1.14965  -1.14965  -1.14914
 Alpha  occ. eigenvalues --   -0.16459  -0.11567
 Alpha virt. eigenvalues --   -0.07915  -0.04336  -0.04336  -0.03161  -0.01642
 Alpha virt. eigenvalues --   -0.01642  -0.00553  -0.00013  -0.00013   0.00304
 Alpha virt. eigenvalues --    0.00451   0.01148   0.01148   0.01403   0.01534
 Alpha virt. eigenvalues --    0.01534   0.01708   0.02379   0.02379   0.02890
 Alpha virt. eigenvalues --    0.03070   0.03070   0.03713   0.04360   0.04442
 Alpha virt. eigenvalues --    0.04442   0.05698   0.06142   0.07088   0.07088
 Alpha virt. eigenvalues --    0.07318   0.08243   0.08243   0.08553   0.08553
 Alpha virt. eigenvalues --    0.08717   0.09998   0.11748   0.11748   0.13007
 Alpha virt. eigenvalues --    0.14615   0.15809   0.17841   0.25670   0.26384
 Alpha virt. eigenvalues --    0.26384   0.28398   0.28398   0.33353   0.33353
 Alpha virt. eigenvalues --    0.34837   0.34837   0.35187   0.35187   0.36062
 Alpha virt. eigenvalues --    0.36062   0.37001   0.39185   0.41705   0.41705
 Alpha virt. eigenvalues --    0.43142   0.43142   0.43173   0.43173   0.43889
 Alpha virt. eigenvalues --    0.45133   0.45133   0.46505   0.48888   0.51561
 Alpha virt. eigenvalues --    0.52575   0.52575   0.70679   0.72135   0.72135
 Alpha virt. eigenvalues --    1.02365   2.03163   2.07913   2.18254   2.30610
 Alpha virt. eigenvalues --    4.40418   4.40418   4.43300   4.43300   4.45846
 Alpha virt. eigenvalues --    4.47085   4.47085   4.48062   4.48062   4.62753
 Alpha virt. eigenvalues --    4.63831   4.88578  96.22601  96.27806  96.43904
 Alpha virt. eigenvalues --   96.54587
          Condensed to atoms (all electrons):
               1          2          3          4
     1  Na  11.370810  -0.173658   0.389803  -0.068290
     2  Na  -0.173658  10.470576  -0.248062   0.135735
     3  Na   0.389803  -0.248062  11.214359  -0.041368
     4  Na  -0.068290   0.135735  -0.041368  10.955936
 Mulliken charges:
               1
     1  Na  -0.518665
     2  Na   0.815409
     3  Na  -0.314733
     4  Na   0.017988
 Sum of Mulliken charges =  -0.00000
 Mulliken charges with hydrogens summed into heavy atoms:
               1
     1  Na  -0.518665
     2  Na   0.815409
     3  Na  -0.314733
     4  Na   0.017988
 Electronic spatial extent (au):  <R**2>=           1836.4419
 Charge=              0.0000 electrons
 Dipole moment (field-independent basis, Debye):
    X=              0.0000    Y=              0.0000    Z=             -1.0751  Tot=              1.0751
 Quadrupole moment (field-independent basis, Debye-Ang):
   XX=            -44.0588   YY=            -44.0588   ZZ=            -24.7509
   XY=              0.0000   XZ=              0.0000   YZ=              0.0000
 Traceless Quadrupole moment (field-independent basis, Debye-Ang):
   XX=             -6.4360   YY=             -6.4360   ZZ=             12.8719
   XY=              0.0000   XZ=              0.0000   YZ=              0.0000
 Octapole moment (field-independent basis, Debye-Ang**2):
  XXX=              0.0000  YYY=              0.0000  ZZZ=             15.2272  XYY=              0.0000
  XXY=              0.0000  XXZ=             -7.5193  XZZ=              0.0000  YZZ=              0.0000
  YYZ=             -7.5193  XYZ=              0.0000
 Hexadecapole moment (field-independent basis, Debye-Ang**3):
 XXXX=           -177.7110 YYYY=           -177.7110 ZZZZ=          -2136.2371 XXXY=              0.0000
 XXXZ=              0.0000 YYYX=              0.0000 YYYZ=              0.0000 ZZZX=              0.0000
 ZZZY=              0.0000 XXYY=            -59.2370 XXZZ=           -540.7392 YYZZ=           -540.7392
 XXYZ=              0.0000 YYXZ=              0.0000 ZZXY=              0.0000
 N-N= 1.016659420836D+02 E-N=-1.761733422371D+03  KE= 6.475391885348D+02
 Symmetry A1   KE= 5.526262887909D+02
 Symmetry A2   KE=-9.391619981494D-53
 Symmetry B1   KE= 4.745644987196D+01
 Symmetry B2   KE= 4.745644987196D+01
 No NMR shielding tensors so no spin-rotation constants.
 Leave Link  601 at Mon Jul  3 12:15:04 2023, MaxMem=  1610612736 cpu:               0.7 elap:               0.1
 (Enter /home/masato/g16/l701.exe)
 ... and contract with generalized density number  0.
 Compute integral first derivatives.
 Leave Link  701 at Mon Jul  3 12:15:04 2023, MaxMem=  1610612736 cpu:               0.7 elap:               0.1
 (Enter /home/masato/g16/l702.exe)
 L702 exits ... SP integral derivatives will be done elsewhere.
 Leave Link  702 at Mon Jul  3 12:15:04 2023, MaxMem=  1610612736 cpu:               0.2 elap:               0.0
 (Enter /home/masato/g16/l703.exe)
 Integral derivatives from FoFJK, PRISM(SPDF).
 Compute integral first derivatives, UseDBF=F ICtDFT=           0.
 Calling FoFJK, ICntrl=      2127 FMM=F ISym2X=1 I1Cent= 0 IOpClX= 0 NMat=1 NMatS=1 NMatT=0.
 FoFJK:  IHMeth= 1 ICntrl=    2127 DoSepK=F KAlg= 0 I1Cent=           0 FoldK=F
 IRaf=         0 NMat=       1 IRICut=       1 DoRegI=T DoRafI=F ISym2E= 1 IDoP0=0 IntGTp=1.
 FoFCou: FMM=F IPFlag=           0 FMFlag=      100000 FMFlg1=         800
         NFxFlg=           0 DoJE=F BraDBF=F KetDBF=F FulRan=T
         wScrn=  0.000000 ICntrl=      2127 IOpCl=  0 I1Cent=           0 NGrid=           0
         NMat0=    1 NMatS0=      1 NMatT0=    0 NMatD0=    1 NMtDS0=    0 NMtDT0=    0
 Petite list used in FoFCou.
 Leave Link  703 at Mon Jul  3 12:15:05 2023, MaxMem=  1610612736 cpu:               4.8 elap:               0.7
 (Enter /home/masato/g16/l716.exe)
 Dipole        = 0.00000000D+00 0.00000000D+00-4.22962083D-01
 ***** Axes restored to original set *****
 -------------------------------------------------------------------
 Center     Atomic                   Forces (Hartrees/Bohr)
 Number     Number              X              Y              Z
 -------------------------------------------------------------------
      1       11          -0.000000000   -0.000000000   -0.034359005
      2       11          -0.000000000   -0.000000000   -0.003414333
      3       11          -0.000000000   -0.000000000    0.044678799
      4       11          -0.000000000   -0.000000000   -0.006905460
 -------------------------------------------------------------------
 Cartesian Forces:  Max     0.044678799 RMS     0.016421732
 Z-matrix is all fixed cartesians, so copy forces.
 Force constants in Cartesian coordinates: 
                1             2             3             4             5 
      1  0.135009D-01
      2  0.000000D+00  0.135009D-01
      3  0.000000D+00  0.000000D+00  0.155280D+00
      4 -0.272612D-01  0.000000D+00  0.000000D+00  0.550460D-01
      5  0.000000D+00 -0.272612D-01  0.000000D+00  0.000000D+00  0.550460D-01
      6  0.000000D+00  0.000000D+00 -0.155280D+00  0.000000D+00  0.000000D+00
      7  0.137603D-01  0.000000D+00  0.000000D+00 -0.277849D-01  0.000000D+00
      8  0.000000D+00  0.137603D-01  0.000000D+00  0.000000D+00 -0.277849D-01
      9  0.000000D+00  0.000000D+00  0.000000D+00  0.000000D+00  0.000000D+00
     10  0.000000D+00  0.000000D+00  0.000000D+00  0.000000D+00  0.000000D+00
     11  0.000000D+00  0.000000D+00  0.000000D+00  0.000000D+00  0.000000D+00
     12  0.000000D+00  0.000000D+00  0.000000D+00  0.000000D+00  0.000000D+00
                6             7             8             9            10 
      6  0.328770D+00
      7  0.000000D+00  0.140246D-01
      8  0.000000D+00  0.000000D+00  0.140246D-01
      9 -0.173490D+00  0.000000D+00  0.000000D+00  0.173490D+00
     10  0.000000D+00  0.000000D+00  0.000000D+00  0.000000D+00  0.100000D+01
     11  0.000000D+00  0.000000D+00  0.000000D+00  0.000000D+00  0.000000D+00
     12  0.000000D+00  0.000000D+00  0.000000D+00  0.000000D+00  0.000000D+00
               11            12 
     11  0.100000D+01
     12  0.000000D+00  0.100000D+01
 Leave Link  716 at Mon Jul  3 12:15:05 2023, MaxMem=  1610612736 cpu:               0.2 elap:               0.0
 (Enter /home/masato/g16/l103.exe)

 GradGradGradGradGradGradGradGradGradGradGradGradGradGradGradGradGradGrad
 Berny optimization.
 Search for a local minimum.
 Step number   1 out of a maximum of    2
 All quantities printed in internal units (Hartrees-Bohrs-Radians)
 Second derivative matrix not updated -- first step.
 The second derivative matrix:
                          X1        Y1        Z1        X2        Y2
           X1           0.01350
           Y1           0.00000   0.01350
           Z1           0.00000   0.00000   0.15528
           X2          -0.02726   0.00000   0.00000   0.05505
           Y2           0.00000  -0.02726   0.00000   0.00000   0.05505
           Z2           0.00000   0.00000  -0.15528   0.00000   0.00000
           X3           0.01376   0.00000   0.00000  -0.02778   0.00000
           Y3           0.00000   0.01376   0.00000   0.00000  -0.02778
           Z3           0.00000   0.00000   0.00000   0.00000   0.00000
           X4           0.00000   0.00000   0.00000   0.00000   0.00000
           Y4           0.00000   0.00000   0.00000   0.00000   0.00000
           Z4           0.00000   0.00000   0.00000   0.00000   0.00000
                          Z2        X3        Y3        Z3        X4
           Z2           0.32877
           X3           0.00000   0.01402
           Y3           0.00000   0.00000   0.01402
           Z3          -0.17349   0.00000   0.00000   0.17349
           X4           0.00000   0.00000   0.00000   0.00000   1.00000
           Y4           0.00000   0.00000   0.00000   0.00000   0.00000
           Z4           0.00000   0.00000   0.00000   0.00000   0.00000
                          Y4        Z4
           Y4           1.00000
           Z4           0.00000   1.00000
 ITU=  0
     Eigenvalues ---    0.08257   0.08257   0.16363   0.17107   0.17107
     Eigenvalues ---    0.49391   0.75000
 Quadratic step=3.398D-01 exceeds max=3.000D-01 adjusted using Lamda=-2.122D-02.
 Angle between NR and scaled steps=   0.33 degrees.
 Angle between quadratic step and forces=   8.74 degrees.
 ClnCor:  largest displacement from symmetrization is 8.72D-17 for atom     3.
 Linear search not attempted -- first point.
 ClnCor:  largest displacement from symmetrization is 3.33D-16 for atom     1.
 B after Tr=     0.000000    0.000000    0.000000
         Rot=    1.000000    0.000000    0.000000    0.000000 Ang=   0.00 deg.
 Variable       Old X    -DE/DX   Delta X   Delta X   Delta X     New X
                                 (Linear)    (Quad)   (Total)
    X1        0.00000  -0.00000   0.00000   0.00000   0.00000   0.00000
    Y1        0.00000  -0.00000   0.00000   0.00000   0.00000   0.00000
    Z1        0.00000  -0.03436   0.00000  -0.20788  -0.20788  -0.20788
    X2        0.00000  -0.00000   0.00000  -0.00000   0.00000   0.00000
    Y2        0.00000  -0.00000   0.00000   0.00000   0.00000   0.00000
    Z2        4.30317  -0.00341   0.00000  -0.00060  -0.00060   4.30257
    X3        0.00000  -0.00000   0.00000   0.00000   0.00000   0.00000
    Y3        0.00000  -0.00000   0.00000   0.00000   0.00000   0.00000
    Z3        8.52523   0.04468   0.00000   0.21743   0.21743   8.74267
    X4        0.00000  -0.00000   0.00000  -0.00000   0.00000   0.00000
    Y4        0.00000  -0.00000   0.00000   0.00000   0.00000   0.00000
    Z4       17.08133  -0.00691   0.00000  -0.00895  -0.00895  17.07237
         Item               Value     Threshold  Converged?
 Maximum Force            0.044679     0.000450     NO 
 RMS     Force            0.016422     0.000300     NO 
 Maximum Displacement     0.217433     0.001800     NO 
 RMS     Displacement     0.086877     0.001200     NO 
 Predicted change in Energy=-9.421465D-03
 GradGradGradGradGradGradGradGradGradGradGradGradGradGradGradGradGradGrad

 Leave Link  103 at Mon Jul  3 12:15:05 2023, MaxMem=  1610612736 cpu:               0.1 elap:               0.0
 (Enter /home/masato/g16/l9999.exe)
 1\1\GINC-MASATO-THINKPAD-T480S\Force\RB3LYP\6-311+G(d)\Na4\MASATO\03-J
 ul-2023\0\\#p B3LYP/6-311+g(d) force\\Test\\0,1\Na,0.,0.,0.\Na,0.,0.,2
 .2771408514\Na,0.,0.,4.5113596354\Na,0.,0.,9.0390497408\\Version=ES64L
 -G16RevB.01\State=1-SG\HF=-649.138107\RMSD=6.831e-09\RMSF=1.642e-02\Di
 pole=0.,0.,-0.4229621\Quadrupole=-4.7849761,-4.7849761,9.5699523,0.,0.
 ,0.\PG=C*V [C*(Na1Na1Na1Na1)]\\@


 KINETICS       FACT
 ---------  =  -------
 MECHANISM     FICTION
 Job cpu time:       0 days  0 hours  0 minutes 24.1 seconds.
 Elapsed time:       0 days  0 hours  0 minutes  3.2 seconds.
 File lengths (MBytes):  RWF=     11 Int=      0 D2E=      0 Chk=      2 Scr=      1
 Normal termination of Gaussian 16 at Mon Jul  3 12:15:05 2023.
