 Entering Gaussian System, Link 0=g16
 Initial command:
 /home/sekinelabo/g16/l1.exe "/home/sekinelabo/g16temp/Gau-1046297.inp" -scrdir="/home/sekinelabo/g16temp/"
 Entering Link 1 = /home/sekinelabo/g16/l1.exe PID=   1046318.
  
 Copyright (c) 1988-2017, Gaussian, Inc.  All Rights Reserved.
  
 This is part of the Gaussian(R) 16 program.  It is based on
 the Gaussian(R) 09 system (copyright 2009, Gaussian, Inc.),
 the Gaussian(R) 03 system (copyright 2003, Gaussian, Inc.),
 the Gaussian(R) 98 system (copyright 1998, Gaussian, Inc.),
 the Gaussian(R) 94 system (copyright 1995, Gaussian, Inc.),
 the Gaussian 92(TM) system (copyright 1992, Gaussian, Inc.),
 the Gaussian 90(TM) system (copyright 1990, Gaussian, Inc.),
 the Gaussian 88(TM) system (copyright 1988, Gaussian, Inc.),
 the Gaussian 86(TM) system (copyright 1986, Carnegie Mellon
 University), and the Gaussian 82(TM) system (copyright 1983,
 Carnegie Mellon University). Gaussian is a federally registered
 trademark of Gaussian, Inc.
  
 This software contains proprietary and confidential information,
 including trade secrets, belonging to Gaussian, Inc.
  
 This software is provided under written license and may be
 used, copied, transmitted, or stored only in accord with that
 written license.
  
 The following legend is applicable only to US Government
 contracts under FAR:
  
                    RESTRICTED RIGHTS LEGEND
  
 Use, reproduction and disclosure by the US Government is
 subject to restrictions as set forth in subparagraphs (a)
 and (c) of the Commercial Computer Software - Restricted
 Rights clause in FAR 52.227-19.
  
 Gaussian, Inc.
 340 Quinnipiac St., Bldg. 40, Wallingford CT 06492
  
  
 ---------------------------------------------------------------
 Warning -- This program may not be used in any manner that
 competes with the business of Gaussian, Inc. or will provide
 assistance to any competitor of Gaussian, Inc.  The licensee
 of this program is prohibited from giving any competitor of
 Gaussian, Inc. access to this program.  By using this program,
 the user acknowledges that Gaussian, Inc. is engaged in the
 business of creating and licensing software in the field of
 computational chemistry and represents and warrants to the
 licensee that it is not a competitor of Gaussian, Inc. and that
 it will not use this program in any manner prohibited above.
 ---------------------------------------------------------------
  

 Cite this work as:
 Gaussian 16, Revision B.01,
 M. J. Frisch, G. W. Trucks, H. B. Schlegel, G. E. Scuseria, 
 M. A. Robb, J. R. Cheeseman, G. Scalmani, V. Barone, 
 G. A. Petersson, H. Nakatsuji, X. Li, M. Caricato, A. V. Marenich, 
 J. Bloino, B. G. Janesko, R. Gomperts, B. Mennucci, H. P. Hratchian, 
 J. V. Ortiz, A. F. Izmaylov, J. L. Sonnenberg, D. Williams-Young, 
 F. Ding, F. Lipparini, F. Egidi, J. Goings, B. Peng, A. Petrone, 
 T. Henderson, D. Ranasinghe, V. G. Zakrzewski, J. Gao, N. Rega, 
 G. Zheng, W. Liang, M. Hada, M. Ehara, K. Toyota, R. Fukuda, 
 J. Hasegawa, M. Ishida, T. Nakajima, Y. Honda, O. Kitao, H. Nakai, 
 T. Vreven, K. Throssell, J. A. Montgomery, Jr., J. E. Peralta, 
 F. Ogliaro, M. J. Bearpark, J. J. Heyd, E. N. Brothers, K. N. Kudin, 
 V. N. Staroverov, T. A. Keith, R. Kobayashi, J. Normand, 
 K. Raghavachari, A. P. Rendell, J. C. Burant, S. S. Iyengar, 
 J. Tomasi, M. Cossi, J. M. Millam, M. Klene, C. Adamo, R. Cammi, 
 J. W. Ochterski, R. L. Martin, K. Morokuma, O. Farkas, 
 J. B. Foresman, and D. J. Fox, Gaussian, Inc., Wallingford CT, 2016.
 
 ******************************************
 Gaussian 16:  ES64L-G16RevB.01 20-Dec-2017
                23-Nov-2023 
 ******************************************
 %nprocshared=14
 Will use up to   14 processors via shared memory.
 -------------------------
 #P B3LYP/6-311+g(d) force
 -------------------------
 1/10=7,30=1,38=1/1,3;
 2/12=2,17=6,18=5,40=1/2;
 3/5=4,6=6,7=11,11=2,25=1,30=1,71=1,74=-5/1,2,3;
 4//1;
 5/5=2,38=5/2;
 6/7=2,8=2,9=2,10=2,28=1/1;
 7/29=1/1,2,3,16;
 1/10=7,30=1/3;
 99//99;
 Leave Link    1 at Thu Nov 23 12:30:20 2023, MaxMem=           0 cpu:               0.5 elap:               0.4
 (Enter /home/sekinelabo/g16/l101.exe)
 -----
 DPGEN
 -----
 Symbolic Z-matrix:
 Charge =  0 Multiplicity = 2
 Na                    10.3972   1.51874   98.7411 
 Na                    10.6082   3.46841   1.1359 
 Na                    8.75916   0.55232   4.21733 
 Na                    6.04549   1.38746   5.42774 
 Na                    4.58321   2.5727    2.85514 
 Na                    2.18747   3.6387    99.5447 
 Na                    1.72832   5.01364   97.0458 
 
 ITRead=  0  0  0  0  0  0  0
 MicOpt= -1 -1 -1 -1 -1 -1 -1
 NAtoms=      7 NQM=        7 NQMF=       0 NMMI=      0 NMMIF=      0
                NMic=       0 NMicF=      0.
                    Isotopes and Nuclear Properties:
 (Nuclear quadrupole moments (NQMom) in fm**2, nuclear magnetic moments (NMagM)
  in nuclear magnetons)

  Atom         1           2           3           4           5           6           7
 IAtWgt=          23          23          23          23          23          23          23
 AtmWgt=  22.9897697  22.9897697  22.9897697  22.9897697  22.9897697  22.9897697  22.9897697
 NucSpn=           3           3           3           3           3           3           3
 AtZEff=  -0.0000000  -0.0000000  -0.0000000  -0.0000000  -0.0000000  -0.0000000  -0.0000000
 NQMom=   10.4000000  10.4000000  10.4000000  10.4000000  10.4000000  10.4000000  10.4000000
 NMagM=    2.2175200   2.2175200   2.2175200   2.2175200   2.2175200   2.2175200   2.2175200
 AtZNuc=  11.0000000  11.0000000  11.0000000  11.0000000  11.0000000  11.0000000  11.0000000
 Leave Link  101 at Thu Nov 23 12:30:23 2023, MaxMem=   104857600 cpu:               2.5 elap:               3.1
 (Enter /home/sekinelabo/g16/l103.exe)

 GradGradGradGradGradGradGradGradGradGradGradGradGradGradGradGradGradGrad
 Berny optimization.
 Initialization pass.
 Trust Radius=3.00D-01 FncErr=1.00D-07 GrdErr=1.00D-07 EigMax=2.50D+02 EigMin=1.00D-04
 Number of steps in this run=      2 maximum allowed number of steps=      2.
 GradGradGradGradGradGradGradGradGradGradGradGradGradGradGradGradGradGrad

 Leave Link  103 at Thu Nov 23 12:30:24 2023, MaxMem=   104857600 cpu:               0.5 elap:               0.5
 (Enter /home/sekinelabo/g16/l202.exe)
                          Input orientation:                          
 ---------------------------------------------------------------------
 Center     Atomic      Atomic             Coordinates (Angstroms)
 Number     Number       Type             X           Y           Z
 ---------------------------------------------------------------------
      1         11           0       10.397200    1.518740   98.741100
      2         11           0       10.608200    3.468410    1.135900
      3         11           0        8.759160    0.552318    4.217330
      4         11           0        6.045490    1.387460    5.427740
      5         11           0        4.583210    2.572700    2.855140
      6         11           0        2.187470    3.638700   99.544700
      7         11           0        1.728320    5.013640   97.045800
 ---------------------------------------------------------------------
                    Distance matrix (angstroms):
                    1          2          3          4          5
     1  Na   0.000000
     2  Na  97.624898   0.000000
     3  Na  94.542902   4.627932   0.000000
     4  Na  93.414869   6.600649   3.086512   0.000000
     5  Na  96.067844   6.329185   4.834880   3.187684   0.000000
     6  Na   8.517022  98.768566  95.603454  94.222898  96.725110
     7  Na   9.499360  96.332492  93.201185  91.791372  94.265524
                    6          7
     6  Na   0.000000
     7  Na   2.888906   0.000000
 Stoichiometry    Na7(2)
 Framework group  C1[X(Na7)]
 Deg. of freedom    15
 Full point group                 C1      NOp   1
 Largest Abelian subgroup         C1      NOp   1
 Largest concise Abelian subgroup C1      NOp   1
                         Standard orientation:                         
 ---------------------------------------------------------------------
 Center     Atomic      Atomic             Coordinates (Angstroms)
 Number     Number       Type             X           Y           Z
 ---------------------------------------------------------------------
      1         11           0       54.440802    5.925456   -0.507400
      2         11           0      -43.091907    2.607675    2.135287
      3         11           0      -39.999548    1.569939   -1.147726
      4         11           0      -38.699034   -1.223076   -0.962549
      5         11           0      -41.210997   -2.997374   -0.123959
      6         11           0       55.512740   -2.521821   -0.322663
      7         11           0       53.047945   -3.360799    0.929010
 ---------------------------------------------------------------------
 Rotational constants (GHZ):           0.2728962           0.0014164           0.0014105
 Leave Link  202 at Thu Nov 23 12:30:25 2023, MaxMem=   104857600 cpu:               0.9 elap:               1.0
 (Enter /home/sekinelabo/g16/l301.exe)
 Standard basis: 6-311+G(d) (5D, 7F)
 Ernie: Thresh=  0.10000D-02 Tol=  0.10000D-05 Strict=F.
 There are   217 symmetry adapted cartesian basis functions of A   symmetry.
 There are   210 symmetry adapted basis functions of A   symmetry.
   210 basis functions,   350 primitive gaussians,   217 cartesian basis functions
    39 alpha electrons       38 beta electrons
       nuclear repulsion energy       132.2243674465 Hartrees.
 IExCor=  402 DFT=T Ex+Corr=B3LYP ExCW=0 ScaHFX=  0.200000
 ScaDFX=  0.800000  0.720000  1.000000  0.810000 ScalE2=  1.000000  1.000000
 IRadAn=      5 IRanWt=     -1 IRanGd=            0 ICorTp=0 IEmpDi=  4
 NAtoms=    7 NActive=    7 NUniq=    7 SFac= 1.00D+00 NAtFMM=   60 NAOKFM=F Big=F
 Integral buffers will be    131072 words long.
 Raffenetti 2 integral format.
 Two-electron integral symmetry is turned on.
 Leave Link  301 at Thu Nov 23 12:30:26 2023, MaxMem=   104857600 cpu:               0.7 elap:               0.9
 (Enter /home/sekinelabo/g16/l302.exe)
 NPDir=0 NMtPBC=     1 NCelOv=     1 NCel=       1 NClECP=     1 NCelD=      1
         NCelK=      1 NCelE2=     1 NClLst=     1 CellRange=     0.0.
 One-electron integrals computed using PRISM.
 One-electron integral symmetry used in STVInt
 NBasis=   210 RedAO= T EigKep=  8.62D-05  NBF=   210
 NBsUse=   210 1.00D-06 EigRej= -1.00D+00 NBFU=   210
 Precomputing XC quadrature grid using
 IXCGrd= 4 IRadAn=           5 IRanWt=          -1 IRanGd=           0 AccXCQ= 0.00D+00.
 Generated NRdTot=       0 NPtTot=           0 NUsed=           0 NTot=          32
 NSgBfM=   116   116   116   116   116 MxSgAt=     7 MxSgA2=     4.
 Leave Link  302 at Thu Nov 23 12:31:02 2023, MaxMem=   104857600 cpu:              28.8 elap:              35.9
 (Enter /home/sekinelabo/g16/l303.exe)
 DipDrv:  MaxL=1.
 Leave Link  303 at Thu Nov 23 12:31:05 2023, MaxMem=   104857600 cpu:               2.5 elap:               3.2
 (Enter /home/sekinelabo/g16/l401.exe)
 ExpMin= 7.60D-03 ExpMax= 3.62D+04 ExpMxC= 1.21D+03 IAcc=3 IRadAn=         5 AccDes= 0.00D+00
 Harris functional with IExCor=  402 and IRadAn=       5 diagonalized for initial guess.
 HarFok:  IExCor=  402 AccDes= 0.00D+00 IRadAn=         5 IDoV= 1 UseB2=F ITyADJ=14
 ICtDFT=  3500011 ScaDFX=  1.000000  1.000000  1.000000  1.000000
 FoFCou: FMM=F IPFlag=           0 FMFlag=      100000 FMFlg1=           0
         NFxFlg=           0 DoJE=T BraDBF=F KetDBF=T FulRan=T
         wScrn=  0.000000 ICntrl=       500 IOpCl=  0 I1Cent=   200000004 NGrid=           0
         NMat0=    1 NMatS0=      1 NMatT0=    0 NMatD0=    1 NMtDS0=    0 NMtDT0=    0
 Petite list used in FoFCou.
 Harris En= -1135.84083542246    
 JPrj=0 DoOrth=F DoCkMO=F.
 Initial guess <Sx>= 0.0000 <Sy>= 0.0000 <Sz>= 0.5000 <S**2>= 0.7500 S= 0.5000
 Leave Link  401 at Thu Nov 23 12:31:25 2023, MaxMem=   104857600 cpu:              16.3 elap:              20.1
 (Enter /home/sekinelabo/g16/l502.exe)
 Integral symmetry usage will be decided dynamically.
 UHF open shell SCF:
 Using DIIS extrapolation, IDIIS=  1040.
 NGot=   104857600 LenX=   104758426 LenY=   104710896
 Requested convergence on RMS density matrix=1.00D-08 within 128 cycles.
 Requested convergence on MAX density matrix=1.00D-06.
 Requested convergence on             energy=1.00D-06.
 No special actions if energy rises.
 Fock matrices will be formed incrementally for  20 cycles.

 Cycle   1  Pass 1  IDiag  1:
 FoFJK:  IHMeth= 1 ICntrl=       0 DoSepK=F KAlg= 0 I1Cent=           0 FoldK=F
 IRaf= 450000000 NMat=       1 IRICut=       1 DoRegI=T DoRafI=F ISym2E= 0 IDoP0=0 IntGTp=1.
 FoFCou: FMM=F IPFlag=           0 FMFlag=      100000 FMFlg1=           0
         NFxFlg=           0 DoJE=F BraDBF=F KetDBF=F FulRan=T
         wScrn=  0.000000 ICntrl=         0 IOpCl=  1 I1Cent=           0 NGrid=           0
         NMat0=    1 NMatS0=      1 NMatT0=    0 NMatD0=    1 NMtDS0=    0 NMtDT0=    0
 Symmetry not used in FoFCou.
 E= -1136.04687418169    
 DIIS: error= 1.54D-02 at cycle   1 NSaved=   1.
 NSaved= 1 IEnMin= 1 EnMin= -1136.04687418169     IErMin= 1 ErrMin= 1.54D-02
 ErrMax= 1.54D-02  0.00D+00 EMaxC= 1.00D-01 BMatC= 1.83D-01 BMatP= 1.83D-01
 IDIUse=3 WtCom= 8.46D-01 WtEn= 1.54D-01
 Coeff-Com:  0.100D+01
 Coeff-En:   0.100D+01
 Coeff:      0.100D+01
 Gap=     0.054 Goal=   None    Shift=    0.000
 Gap=     0.032 Goal=   None    Shift=    0.000
 GapD=    0.032 DampG=0.250 DampE=0.500 DampFc=0.2500 IDamp=-1.
 Damping current iteration by 2.50D-01
 RMSDP=1.88D-03 MaxDP=1.32D-01              OVMax= 2.08D-01

 Cycle   2  Pass 1  IDiag  1:
 RMSU=  4.68D-04    CP:  9.99D-01
 E= -1136.05408050902     Delta-E=       -0.007206327331 Rises=F Damp=T
 DIIS: error= 1.10D-02 at cycle   2 NSaved=   2.
 NSaved= 2 IEnMin= 2 EnMin= -1136.05408050902     IErMin= 2 ErrMin= 1.10D-02
 ErrMax= 1.10D-02  0.00D+00 EMaxC= 1.00D-01 BMatC= 7.09D-02 BMatP= 1.83D-01
 IDIUse=3 WtCom= 8.90D-01 WtEn= 1.10D-01
 Coeff-Com: -0.129D+01 0.229D+01
 Coeff-En:   0.000D+00 0.100D+01
 Coeff:     -0.115D+01 0.215D+01
 Gap=     0.027 Goal=   None    Shift=    0.000
 Gap=     0.027 Goal=   None    Shift=    0.000
 RMSDP=1.70D-03 MaxDP=8.03D-02 DE=-7.21D-03 OVMax= 3.37D-01

 Cycle   3  Pass 1  IDiag  1:
 RMSU=  1.66D-03    CP:  9.90D-01  1.72D+00
 E= -1136.05802689449     Delta-E=       -0.003946385469 Rises=F Damp=F
 DIIS: error= 3.39D-03 at cycle   3 NSaved=   3.
 NSaved= 3 IEnMin= 3 EnMin= -1136.05802689449     IErMin= 3 ErrMin= 3.39D-03
 ErrMax= 3.39D-03  0.00D+00 EMaxC= 1.00D-01 BMatC= 5.39D-03 BMatP= 7.09D-02
 IDIUse=3 WtCom= 9.66D-01 WtEn= 3.39D-02
 Coeff-Com: -0.319D+00 0.572D+00 0.747D+00
 Coeff-En:   0.000D+00 0.339D+00 0.661D+00
 Coeff:     -0.308D+00 0.564D+00 0.744D+00
 Gap=     0.013 Goal=   None    Shift=    0.000
 Gap=     0.013 Goal=   None    Shift=    0.000
 RMSDP=3.26D-03 MaxDP=2.92D-01 DE=-3.95D-03 OVMax= 6.18D-01

 Cycle   4  Pass 1  IDiag  1:
 RMSU=  1.81D-03    CP:  9.88D-01  3.00D+00 -4.29D-01
 E= -1136.01108600054     Delta-E=        0.046940893948 Rises=F Damp=F
 DIIS: error= 1.06D-02 at cycle   4 NSaved=   4.
 NSaved= 4 IEnMin= 3 EnMin= -1136.05802689449     IErMin= 3 ErrMin= 3.39D-03
 ErrMax= 1.06D-02  0.00D+00 EMaxC= 1.00D-01 BMatC= 2.19D-02 BMatP= 5.39D-03
 IDIUse=2 WtCom= 0.00D+00 WtEn= 1.00D+00
 Coeff-En:   0.000D+00 0.000D+00 0.748D+00 0.252D+00
 Coeff:      0.000D+00 0.000D+00 0.748D+00 0.252D+00
 Gap=     0.023 Goal=   None    Shift=    0.000
 Gap=     0.023 Goal=   None    Shift=    0.000
 RMSDP=1.63D-03 MaxDP=1.04D-01 DE= 4.69D-02 OVMax= 3.09D-01

 Cycle   5  Pass 1  IDiag  1:
 RMSU=  4.57D-04    CP:  9.91D-01  3.00D+00  1.43D-01  3.12D-01
 E= -1136.06244403040     Delta-E=       -0.051358029854 Rises=F Damp=F
 DIIS: error= 3.34D-03 at cycle   5 NSaved=   5.
 NSaved= 5 IEnMin= 5 EnMin= -1136.06244403040     IErMin= 5 ErrMin= 3.34D-03
 ErrMax= 3.34D-03  0.00D+00 EMaxC= 1.00D-01 BMatC= 3.18D-03 BMatP= 5.39D-03
 IDIUse=3 WtCom= 9.67D-01 WtEn= 3.34D-02
 Coeff-Com: -0.419D-02 0.724D-02 0.394D+00-0.674D-01 0.671D+00
 Coeff-En:   0.000D+00 0.000D+00 0.423D+00 0.000D+00 0.577D+00
 Coeff:     -0.405D-02 0.700D-02 0.395D+00-0.652D-01 0.667D+00
 Gap=     0.026 Goal=   None    Shift=    0.000
 Gap=     0.026 Goal=   None    Shift=    0.000
 RMSDP=7.53D-04 MaxDP=6.66D-02 DE=-5.14D-02 OVMax= 1.44D-01

 Cycle   6  Pass 1  IDiag  1:
 RMSU=  1.71D-04    CP:  9.91D-01  2.95D+00  4.87D-01  7.45D-02  7.96D-01
 E= -1136.06946524858     Delta-E=       -0.007021218187 Rises=F Damp=F
 DIIS: error= 3.75D-04 at cycle   6 NSaved=   6.
 NSaved= 6 IEnMin= 6 EnMin= -1136.06946524858     IErMin= 6 ErrMin= 3.75D-04
 ErrMax= 3.75D-04  0.00D+00 EMaxC= 1.00D-01 BMatC= 3.99D-05 BMatP= 3.18D-03
 IDIUse=3 WtCom= 9.96D-01 WtEn= 3.75D-03
 Coeff-Com: -0.678D-03 0.794D-03 0.924D-01-0.354D-01 0.134D+00 0.809D+00
 Coeff-En:   0.000D+00 0.000D+00 0.000D+00 0.000D+00 0.000D+00 0.100D+01
 Coeff:     -0.675D-03 0.791D-03 0.920D-01-0.352D-01 0.133D+00 0.810D+00
 Gap=     0.027 Goal=   None    Shift=    0.000
 Gap=     0.027 Goal=   None    Shift=    0.000
 RMSDP=8.52D-05 MaxDP=5.86D-03 DE=-7.02D-03 OVMax= 9.78D-03

 Cycle   7  Pass 1  IDiag  1:
 RMSU=  7.87D-05    CP:  9.91D-01  2.94D+00  4.99D-01  7.89D-02  8.41D-01
                    CP:  9.16D-01
 E= -1136.06951152942     Delta-E=       -0.000046280838 Rises=F Damp=F
 DIIS: error= 2.06D-04 at cycle   7 NSaved=   7.
 NSaved= 7 IEnMin= 7 EnMin= -1136.06951152942     IErMin= 7 ErrMin= 2.06D-04
 ErrMax= 2.06D-04  0.00D+00 EMaxC= 1.00D-01 BMatC= 1.73D-05 BMatP= 3.99D-05
 IDIUse=3 WtCom= 9.98D-01 WtEn= 2.06D-03
 Coeff-Com:  0.103D-02-0.135D-02 0.319D-01-0.154D-01 0.105D-01 0.406D+00
 Coeff-Com:  0.568D+00
 Coeff-En:   0.000D+00 0.000D+00 0.000D+00 0.000D+00 0.000D+00 0.000D+00
 Coeff-En:   0.100D+01
 Coeff:      0.102D-02-0.134D-02 0.319D-01-0.154D-01 0.105D-01 0.405D+00
 Coeff:      0.569D+00
 Gap=     0.028 Goal=   None    Shift=    0.000
 Gap=     0.028 Goal=   None    Shift=    0.000
 RMSDP=3.08D-05 MaxDP=2.88D-03 DE=-4.63D-05 OVMax= 3.90D-03

 Cycle   8  Pass 1  IDiag  1:
 RMSU=  2.13D-05    CP:  9.91D-01  2.94D+00  5.07D-01  7.53D-02  8.29D-01
                    CP:  9.24D-01  8.02D-01
 E= -1136.06952862296     Delta-E=       -0.000017093534 Rises=F Damp=F
 DIIS: error= 1.06D-04 at cycle   8 NSaved=   8.
 NSaved= 8 IEnMin= 8 EnMin= -1136.06952862296     IErMin= 8 ErrMin= 1.06D-04
 ErrMax= 1.06D-04  0.00D+00 EMaxC= 1.00D-01 BMatC= 3.68D-06 BMatP= 1.73D-05
 IDIUse=3 WtCom= 9.99D-01 WtEn= 1.06D-03
 Coeff-Com:  0.173D-02-0.229D-02 0.148D-01-0.433D-02-0.152D-01 0.127D+00
 Coeff-Com:  0.225D+00 0.653D+00
 Coeff-En:   0.000D+00 0.000D+00 0.000D+00 0.000D+00 0.000D+00 0.000D+00
 Coeff-En:   0.000D+00 0.100D+01
 Coeff:      0.173D-02-0.229D-02 0.148D-01-0.432D-02-0.152D-01 0.127D+00
 Coeff:      0.225D+00 0.653D+00
 Gap=     0.028 Goal=   None    Shift=    0.000
 Gap=     0.028 Goal=   None    Shift=    0.000
 RMSDP=2.19D-05 MaxDP=2.08D-03 DE=-1.71D-05 OVMax= 3.64D-03

 Cycle   9  Pass 1  IDiag  1:
 RMSU=  7.10D-06    CP:  9.91D-01  2.91D+00  5.15D-01  7.46D-02  8.25D-01
                    CP:  9.28D-01  8.34D-01  6.22D-01
 E= -1136.06953499317     Delta-E=       -0.000006370216 Rises=F Damp=F
 DIIS: error= 3.95D-05 at cycle   9 NSaved=   9.
 NSaved= 9 IEnMin= 9 EnMin= -1136.06953499317     IErMin= 9 ErrMin= 3.95D-05
 ErrMax= 3.95D-05  0.00D+00 EMaxC= 1.00D-01 BMatC= 6.11D-07 BMatP= 3.68D-06
 IDIUse=1 WtCom= 1.00D+00 WtEn= 0.00D+00
 Coeff-Com:  0.114D-02-0.150D-02 0.519D-02-0.408D-03-0.134D-01 0.834D-02
 Coeff-Com:  0.222D-01 0.367D+00 0.611D+00
 Coeff:      0.114D-02-0.150D-02 0.519D-02-0.408D-03-0.134D-01 0.834D-02
 Coeff:      0.222D-01 0.367D+00 0.611D+00
 Gap=     0.028 Goal=   None    Shift=    0.000
 Gap=     0.028 Goal=   None    Shift=    0.000
 RMSDP=9.09D-06 MaxDP=8.56D-04 DE=-6.37D-06 OVMax= 1.64D-03

 Cycle  10  Pass 1  IDiag  1:
 RMSU=  2.00D-06    CP:  9.91D-01  2.91D+00  5.19D-01  7.32D-02  8.20D-01
                    CP:  9.23D-01  8.09D-01  7.60D-01  1.13D+00
 E= -1136.06953616870     Delta-E=       -0.000001175529 Rises=F Damp=F
 DIIS: error= 5.56D-06 at cycle  10 NSaved=  10.
 NSaved=10 IEnMin=10 EnMin= -1136.06953616870     IErMin=10 ErrMin= 5.56D-06
 ErrMax= 5.56D-06  0.00D+00 EMaxC= 1.00D-01 BMatC= 1.25D-08 BMatP= 6.11D-07
 IDIUse=1 WtCom= 1.00D+00 WtEn= 0.00D+00
 Coeff-Com:  0.261D-03-0.352D-03 0.566D-03 0.215D-03-0.359D-02-0.698D-02
 Coeff-Com: -0.531D-02 0.649D-01 0.920D-01 0.858D+00
 Coeff:      0.261D-03-0.352D-03 0.566D-03 0.215D-03-0.359D-02-0.698D-02
 Coeff:     -0.531D-02 0.649D-01 0.920D-01 0.858D+00
 Gap=     0.028 Goal=   None    Shift=    0.000
 Gap=     0.028 Goal=   None    Shift=    0.000
 RMSDP=1.74D-06 MaxDP=1.26D-04 DE=-1.18D-06 OVMax= 2.85D-04

 Cycle  11  Pass 1  IDiag  1:
 RMSU=  4.32D-07    CP:  9.91D-01  2.91D+00  5.19D-01  7.28D-02  8.19D-01
                    CP:  9.20D-01  8.11D-01  7.76D-01  1.17D+00  1.50D+00
 E= -1136.06953619247     Delta-E=       -0.000000023767 Rises=F Damp=F
 DIIS: error= 4.79D-07 at cycle  11 NSaved=  11.
 NSaved=11 IEnMin=11 EnMin= -1136.06953619247     IErMin=11 ErrMin= 4.79D-07
 ErrMax= 4.79D-07  0.00D+00 EMaxC= 1.00D-01 BMatC= 1.23D-10 BMatP= 1.25D-08
 IDIUse=1 WtCom= 1.00D+00 WtEn= 0.00D+00
 Coeff-Com: -0.477D-04 0.631D-04-0.250D-03 0.464D-04 0.157D-05 0.160D-02
 Coeff-Com:  0.240D-02-0.815D-02-0.221D-01-0.111D+00 0.114D+01
 Coeff:     -0.477D-04 0.631D-04-0.250D-03 0.464D-04 0.157D-05 0.160D-02
 Coeff:      0.240D-02-0.815D-02-0.221D-01-0.111D+00 0.114D+01
 Gap=     0.028 Goal=   None    Shift=    0.000
 Gap=     0.028 Goal=   None    Shift=    0.000
 RMSDP=4.80D-07 MaxDP=2.63D-05 DE=-2.38D-08 OVMax= 5.80D-05

 Cycle  12  Pass 1  IDiag  1:
 RMSU=  1.02D-07    CP:  9.91D-01  2.90D+00  5.19D-01  7.28D-02  8.19D-01
                    CP:  9.20D-01  8.09D-01  7.78D-01  1.20D+00  1.63D+00
                    CP:  1.40D+00
 E= -1136.06953619247     Delta-E=       -0.000000000003 Rises=F Damp=F
 DIIS: error= 6.62D-07 at cycle  12 NSaved=  12.
 NSaved=12 IEnMin=12 EnMin= -1136.06953619247     IErMin=11 ErrMin= 4.79D-07
 ErrMax= 6.62D-07  0.00D+00 EMaxC= 1.00D-01 BMatC= 1.70D-10 BMatP= 1.23D-10
 IDIUse=1 WtCom= 1.00D+00 WtEn= 0.00D+00
 Coeff-Com: -0.186D-04 0.248D-04-0.106D-03 0.447D-05 0.104D-03 0.799D-03
 Coeff-Com:  0.122D-02-0.126D-02-0.812D-03-0.848D-01 0.217D+00 0.868D+00
 Coeff:     -0.186D-04 0.248D-04-0.106D-03 0.447D-05 0.104D-03 0.799D-03
 Coeff:      0.122D-02-0.126D-02-0.812D-03-0.848D-01 0.217D+00 0.868D+00
 Gap=     0.028 Goal=   None    Shift=    0.000
 Gap=     0.028 Goal=   None    Shift=    0.000
 RMSDP=1.51D-07 MaxDP=1.28D-05 DE=-3.41D-12 OVMax= 2.26D-05

 Cycle  13  Pass 1  IDiag  1:
 RMSU=  5.24D-08    CP:  9.91D-01  2.90D+00  5.19D-01  7.28D-02  8.19D-01
                    CP:  9.20D-01  8.10D-01  7.77D-01  1.20D+00  1.65D+00
                    CP:  1.43D+00  1.19D+00
 E= -1136.06953619279     Delta-E=       -0.000000000316 Rises=F Damp=F
 DIIS: error= 2.25D-07 at cycle  13 NSaved=  13.
 NSaved=13 IEnMin=13 EnMin= -1136.06953619279     IErMin=13 ErrMin= 2.25D-07
 ErrMax= 2.25D-07  0.00D+00 EMaxC= 1.00D-01 BMatC= 1.57D-11 BMatP= 1.23D-10
 IDIUse=1 WtCom= 1.00D+00 WtEn= 0.00D+00
 Coeff-Com: -0.296D-05 0.396D-05-0.237D-04-0.184D-05 0.464D-04 0.414D-04
 Coeff-Com: -0.137D-04 0.818D-03 0.191D-02-0.158D-01-0.479D-01 0.163D+00
 Coeff-Com:  0.898D+00
 Coeff:     -0.296D-05 0.396D-05-0.237D-04-0.184D-05 0.464D-04 0.414D-04
 Coeff:     -0.137D-04 0.818D-03 0.191D-02-0.158D-01-0.479D-01 0.163D+00
 Coeff:      0.898D+00
 Gap=     0.028 Goal=   None    Shift=    0.000
 Gap=     0.028 Goal=   None    Shift=    0.000
 RMSDP=5.81D-08 MaxDP=4.71D-06 DE=-3.16D-10 OVMax= 8.27D-06

 Cycle  14  Pass 1  IDiag  1:
 RMSU=  1.69D-08    CP:  9.91D-01  2.90D+00  5.19D-01  7.28D-02  8.19D-01
                    CP:  9.20D-01  8.10D-01  7.78D-01  1.20D+00  1.65D+00
                    CP:  1.46D+00  1.31D+00  1.26D+00
 E= -1136.06953619282     Delta-E=       -0.000000000034 Rises=F Damp=F
 DIIS: error= 4.52D-08 at cycle  14 NSaved=  14.
 NSaved=14 IEnMin=14 EnMin= -1136.06953619282     IErMin=14 ErrMin= 4.52D-08
 ErrMax= 4.52D-08  0.00D+00 EMaxC= 1.00D-01 BMatC= 6.91D-13 BMatP= 1.57D-11
 IDIUse=1 WtCom= 1.00D+00 WtEn= 0.00D+00
 Coeff-Com:  0.184D-05-0.244D-05 0.101D-04-0.314D-06-0.112D-04-0.119D-03
 Coeff-Com: -0.117D-03 0.458D-04 0.425D-03 0.106D-01-0.240D-01-0.117D+00
 Coeff-Com: -0.596D-01 0.119D+01
 Coeff:      0.184D-05-0.244D-05 0.101D-04-0.314D-06-0.112D-04-0.119D-03
 Coeff:     -0.117D-03 0.458D-04 0.425D-03 0.106D-01-0.240D-01-0.117D+00
 Coeff:     -0.596D-01 0.119D+01
 Gap=     0.028 Goal=   None    Shift=    0.000
 Gap=     0.028 Goal=   None    Shift=    0.000
 RMSDP=2.60D-08 MaxDP=2.20D-06 DE=-3.41D-11 OVMax= 3.39D-06

 Cycle  15  Pass 1  IDiag  1:
 RMSU=  6.09D-09    CP:  9.91D-01  2.90D+00  5.19D-01  7.28D-02  8.19D-01
                    CP:  9.20D-01  8.10D-01  7.78D-01  1.20D+00  1.65D+00
                    CP:  1.46D+00  1.38D+00  1.45D+00  1.84D+00
 E= -1136.06953619283     Delta-E=       -0.000000000007 Rises=F Damp=F
 DIIS: error= 2.48D-08 at cycle  15 NSaved=  15.
 NSaved=15 IEnMin=15 EnMin= -1136.06953619283     IErMin=15 ErrMin= 2.48D-08
 ErrMax= 2.48D-08  0.00D+00 EMaxC= 1.00D-01 BMatC= 2.46D-13 BMatP= 6.91D-13
 IDIUse=1 WtCom= 1.00D+00 WtEn= 0.00D+00
 Coeff-Com:  0.817D-06-0.109D-05 0.739D-05 0.454D-06-0.115D-04-0.229D-04
 Coeff-Com: -0.756D-05-0.279D-03-0.817D-03 0.530D-02 0.123D-01-0.501D-01
 Coeff-Com: -0.240D+00 0.235D+00 0.104D+01
 Coeff:      0.817D-06-0.109D-05 0.739D-05 0.454D-06-0.115D-04-0.229D-04
 Coeff:     -0.756D-05-0.279D-03-0.817D-03 0.530D-02 0.123D-01-0.501D-01
 Coeff:     -0.240D+00 0.235D+00 0.104D+01
 Gap=     0.028 Goal=   None    Shift=    0.000
 Gap=     0.028 Goal=   None    Shift=    0.000
 RMSDP=1.25D-08 MaxDP=1.35D-06 DE=-7.28D-12 OVMax= 2.10D-06

 Cycle  16  Pass 1  IDiag  1:
 RMSU=  1.77D-09    CP:  9.91D-01  2.90D+00  5.19D-01  7.28D-02  8.19D-01
                    CP:  9.20D-01  8.10D-01  7.78D-01  1.20D+00  1.65D+00
                    CP:  1.46D+00  1.41D+00  1.56D+00  2.31D+00  1.99D+00
 E= -1136.06953619282     Delta-E=        0.000000000004 Rises=F Damp=F
 DIIS: error= 1.18D-08 at cycle  16 NSaved=  16.
 NSaved=16 IEnMin=15 EnMin= -1136.06953619283     IErMin=16 ErrMin= 1.18D-08
 ErrMax= 1.18D-08  0.00D+00 EMaxC= 1.00D-01 BMatC= 3.98D-14 BMatP= 2.46D-13
 IDIUse=1 WtCom= 1.00D+00 WtEn= 0.00D+00
 Coeff-Com:  0.214D-07-0.307D-07 0.502D-07-0.128D-06 0.216D-06 0.306D-04
 Coeff-Com:  0.111D-04 0.538D-04 0.821D-04-0.200D-02 0.146D-02 0.302D-01
 Coeff-Com:  0.379D-01-0.358D+00-0.131D+00 0.142D+01
 Coeff:      0.214D-07-0.307D-07 0.502D-07-0.128D-06 0.216D-06 0.306D-04
 Coeff:      0.111D-04 0.538D-04 0.821D-04-0.200D-02 0.146D-02 0.302D-01
 Coeff:      0.379D-01-0.358D+00-0.131D+00 0.142D+01
 Gap=     0.028 Goal=   None    Shift=    0.000
 Gap=     0.028 Goal=   None    Shift=    0.000
 RMSDP=9.25D-09 MaxDP=1.04D-06 DE= 3.64D-12 OVMax= 1.59D-06

 Cycle  17  Pass 1  IDiag  1:
 RMSU=  1.10D-09    CP:  9.91D-01  2.90D+00  5.19D-01  7.28D-02  8.19D-01
                    CP:  9.20D-01  8.10D-01  7.78D-01  1.20D+00  1.65D+00
                    CP:  1.46D+00  1.44D+00  1.60D+00  2.65D+00  2.86D+00
                    CP:  2.08D+00
 E= -1136.06953619283     Delta-E=       -0.000000000005 Rises=F Damp=F
 DIIS: error= 2.31D-09 at cycle  17 NSaved=  17.
 NSaved=17 IEnMin=17 EnMin= -1136.06953619283     IErMin=17 ErrMin= 2.31D-09
 ErrMax= 2.31D-09  0.00D+00 EMaxC= 1.00D-01 BMatC= 1.89D-15 BMatP= 3.98D-14
 IDIUse=1 WtCom= 1.00D+00 WtEn= 0.00D+00
 Large coefficients: NSaved= 17 BigCof=    0.00 CofMax=   10.00 Det=-1.76D-15
 Inversion failed.  Reducing to 16 matrices.
 Large coefficients: NSaved= 16 BigCof=    0.00 CofMax=   10.00 Det=-1.78D-15
 Inversion failed.  Reducing to 15 matrices.
 Coeff-Com: -0.512D-08-0.254D-06 0.431D-06-0.188D-07-0.192D-05 0.545D-05
 Coeff-Com:  0.151D-04-0.121D-03-0.736D-03 0.190D-02 0.137D-01-0.238D-01
 Coeff-Com: -0.551D-01 0.145D-01 0.105D+01
 Coeff:     -0.512D-08-0.254D-06 0.431D-06-0.188D-07-0.192D-05 0.545D-05
 Coeff:      0.151D-04-0.121D-03-0.736D-03 0.190D-02 0.137D-01-0.238D-01
 Coeff:     -0.551D-01 0.145D-01 0.105D+01
 Gap=     0.028 Goal=   None    Shift=    0.000
 Gap=     0.028 Goal=   None    Shift=    0.000
 RMSDP=1.50D-09 MaxDP=1.57D-07 DE=-5.23D-12 OVMax= 2.38D-07

 SCF Done:  E(UB3LYP) =  -1136.06953619     A.U. after   17 cycles
            NFock= 17  Conv=0.15D-08     -V/T= 2.0028
 <Sx>= 0.0000 <Sy>= 0.0000 <Sz>= 0.5000 <S**2>= 0.7500 S= 0.5000
 <L.S>= 0.000000000000E+00
 KE= 1.132841530033D+03 PE=-2.993072274826D+03 EE= 5.919368411535D+02
 Annihilation of the first spin contaminant:
 S**2 before annihilation     0.7500,   after     0.7500
 Leave Link  502 at Thu Nov 23 12:40:39 2023, MaxMem=   104857600 cpu:             450.1 elap:             553.4
 (Enter /home/sekinelabo/g16/l601.exe)
 Copying SCF densities to generalized density rwf, IOpCl= 1 IROHF=0.

 **********************************************************************

            Population analysis using the SCF Density.

 **********************************************************************

 Orbital symmetries:
 Alpha Orbitals:
       Occupied  (A) (A) (A) (A) (A) (A) (A) (A) (A) (A) (A) (A)
                 (A) (A) (A) (A) (A) (A) (A) (A) (A) (A) (A) (A)
                 (A) (A) (A) (A) (A) (A) (A) (A) (A) (A) (A) (A)
                 (A) (A) (A)
       Virtual   (A) (A) (A) (A) (A) (A) (A) (A) (A) (A) (A) (A)
                 (A) (A) (A) (A) (A) (A) (A) (A) (A) (A) (A) (A)
                 (A) (A) (A) (A) (A) (A) (A) (A) (A) (A) (A) (A)
                 (A) (A) (A) (A) (A) (A) (A) (A) (A) (A) (A) (A)
                 (A) (A) (A) (A) (A) (A) (A) (A) (A) (A) (A) (A)
                 (A) (A) (A) (A) (A) (A) (A) (A) (A) (A) (A) (A)
                 (A) (A) (A) (A) (A) (A) (A) (A) (A) (A) (A) (A)
                 (A) (A) (A) (A) (A) (A) (A) (A) (A) (A) (A) (A)
                 (A) (A) (A) (A) (A) (A) (A) (A) (A) (A) (A) (A)
                 (A) (A) (A) (A) (A) (A) (A) (A) (A) (A) (A) (A)
                 (A) (A) (A) (A) (A) (A) (A) (A) (A) (A) (A) (A)
                 (A) (A) (A) (A) (A) (A) (A) (A) (A) (A) (A) (A)
                 (A) (A) (A) (A) (A) (A) (A) (A) (A) (A) (A) (A)
                 (A) (A) (A) (A) (A) (A) (A) (A) (A) (A) (A) (A)
                 (A) (A) (A)
 Beta  Orbitals:
       Occupied  (A) (A) (A) (A) (A) (A) (A) (A) (A) (A) (A) (A)
                 (A) (A) (A) (A) (A) (A) (A) (A) (A) (A) (A) (A)
                 (A) (A) (A) (A) (A) (A) (A) (A) (A) (A) (A) (A)
                 (A) (A)
       Virtual   (A) (A) (A) (A) (A) (A) (A) (A) (A) (A) (A) (A)
                 (A) (A) (A) (A) (A) (A) (A) (A) (A) (A) (A) (A)
                 (A) (A) (A) (A) (A) (A) (A) (A) (A) (A) (A) (A)
                 (A) (A) (A) (A) (A) (A) (A) (A) (A) (A) (A) (A)
                 (A) (A) (A) (A) (A) (A) (A) (A) (A) (A) (A) (A)
                 (A) (A) (A) (A) (A) (A) (A) (A) (A) (A) (A) (A)
                 (A) (A) (A) (A) (A) (A) (A) (A) (A) (A) (A) (A)
                 (A) (A) (A) (A) (A) (A) (A) (A) (A) (A) (A) (A)
                 (A) (A) (A) (A) (A) (A) (A) (A) (A) (A) (A) (A)
                 (A) (A) (A) (A) (A) (A) (A) (A) (A) (A) (A) (A)
                 (A) (A) (A) (A) (A) (A) (A) (A) (A) (A) (A) (A)
                 (A) (A) (A) (A) (A) (A) (A) (A) (A) (A) (A) (A)
                 (A) (A) (A) (A) (A) (A) (A) (A) (A) (A) (A) (A)
                 (A) (A) (A) (A) (A) (A) (A) (A) (A) (A) (A) (A)
                 (A) (A) (A) (A)
 The electronic state is 2-A.
 Alpha  occ. eigenvalues --  -38.45718 -38.45376 -38.45068 -38.44770 -38.44597
 Alpha  occ. eigenvalues --  -38.44168 -38.44167  -2.21504  -2.21139  -2.20827
 Alpha  occ. eigenvalues --   -2.20464  -2.20442  -2.19991  -2.19968  -1.15116
 Alpha  occ. eigenvalues --   -1.15116  -1.15115  -1.14805  -1.14802  -1.14791
 Alpha  occ. eigenvalues --   -1.14543  -1.14494  -1.14460  -1.14147  -1.14141
 Alpha  occ. eigenvalues --   -1.14101  -1.14097  -1.14094  -1.14076  -1.13854
 Alpha  occ. eigenvalues --   -1.13643  -1.13643  -1.13598  -1.13598  -1.13497
 Alpha  occ. eigenvalues --   -0.15021  -0.13247  -0.12742  -0.10820
 Alpha virt. eigenvalues --   -0.08067  -0.05347  -0.04979  -0.03292  -0.02782
 Alpha virt. eigenvalues --   -0.02597  -0.02455  -0.02064  -0.02002  -0.01988
 Alpha virt. eigenvalues --   -0.01695  -0.01227  -0.00843  -0.00736  -0.00532
 Alpha virt. eigenvalues --   -0.00036   0.00266   0.00391   0.00438   0.00699
 Alpha virt. eigenvalues --    0.00711   0.00806   0.00885   0.00921   0.01064
 Alpha virt. eigenvalues --    0.01080   0.01244   0.01251   0.01560   0.01573
 Alpha virt. eigenvalues --    0.01654   0.01743   0.01744   0.01773   0.01859
 Alpha virt. eigenvalues --    0.01933   0.02034   0.02198   0.02217   0.02426
 Alpha virt. eigenvalues --    0.02447   0.02608   0.02625   0.02636   0.02865
 Alpha virt. eigenvalues --    0.02910   0.03041   0.03046   0.03717   0.04311
 Alpha virt. eigenvalues --    0.04570   0.05095   0.06352   0.06944   0.07080
 Alpha virt. eigenvalues --    0.07083   0.07182   0.07195   0.07553   0.07671
 Alpha virt. eigenvalues --    0.07742   0.07784   0.08275   0.08303   0.08512
 Alpha virt. eigenvalues --    0.08635   0.08830   0.09118   0.09851   0.09999
 Alpha virt. eigenvalues --    0.10022   0.10130   0.10202   0.10787   0.11019
 Alpha virt. eigenvalues --    0.11216   0.12238   0.14043   0.15310   0.15624
 Alpha virt. eigenvalues --    0.27444   0.28405   0.29461   0.29845   0.29862
 Alpha virt. eigenvalues --    0.29871   0.32378   0.32537   0.32614   0.32711
 Alpha virt. eigenvalues --    0.33277   0.33280   0.33291   0.33332   0.33448
 Alpha virt. eigenvalues --    0.33753   0.34429   0.35252   0.35331   0.35444
 Alpha virt. eigenvalues --    0.35608   0.36020   0.36893   0.37568   0.38563
 Alpha virt. eigenvalues --    0.38565   0.39155   0.41886   0.42037   0.42149
 Alpha virt. eigenvalues --    0.42262   0.42458   0.42778   0.42923   0.43206
 Alpha virt. eigenvalues --    0.43528   0.43590   0.43699   0.43829   0.44106
 Alpha virt. eigenvalues --    0.44522   0.44726   0.44952   0.45891   0.46681
 Alpha virt. eigenvalues --    0.47893   0.47961   0.48336   0.49209   0.50277
 Alpha virt. eigenvalues --    0.50615   0.50619   0.52598   0.62551   0.70660
 Alpha virt. eigenvalues --    0.76231   1.99308   2.01894   2.03878   2.03976
 Alpha virt. eigenvalues --    2.08799   2.12033   2.16501   4.40715   4.41319
 Alpha virt. eigenvalues --    4.41548   4.42874   4.42909   4.42954   4.43063
 Alpha virt. eigenvalues --    4.43422   4.43465   4.43690   4.43996   4.44169
 Alpha virt. eigenvalues --    4.44452   4.45267   4.45491   4.46359   4.46548
 Alpha virt. eigenvalues --    4.47398   4.57350   4.62053   4.69687  96.18434
 Alpha virt. eigenvalues --   96.21059  96.23289  96.23586  96.29631  96.34779
 Alpha virt. eigenvalues --   96.39691
  Beta  occ. eigenvalues --  -38.45532 -38.45376 -38.45068 -38.44770 -38.44597
  Beta  occ. eigenvalues --  -38.44168 -38.44167  -2.21158  -2.21139  -2.20827
  Beta  occ. eigenvalues --   -2.20464  -2.20442  -2.19991  -2.19968  -1.14882
  Beta  occ. eigenvalues --   -1.14881  -1.14881  -1.14805  -1.14802  -1.14791
  Beta  occ. eigenvalues --   -1.14543  -1.14494  -1.14460  -1.14147  -1.14141
  Beta  occ. eigenvalues --   -1.14101  -1.14097  -1.14094  -1.14076  -1.13853
  Beta  occ. eigenvalues --   -1.13643  -1.13643  -1.13598  -1.13598  -1.13497
  Beta  occ. eigenvalues --   -0.15021  -0.13242  -0.10820
  Beta virt. eigenvalues --   -0.08067  -0.06231  -0.05349  -0.04979  -0.03292
  Beta virt. eigenvalues --   -0.02782  -0.02458  -0.02440  -0.01988  -0.01227
  Beta virt. eigenvalues --   -0.00962  -0.00736  -0.00532  -0.00158  -0.00069
  Beta virt. eigenvalues --   -0.00036   0.00129   0.00266   0.00438   0.00681
  Beta virt. eigenvalues --    0.00699   0.00806   0.00884   0.00921   0.01029
  Beta virt. eigenvalues --    0.01064   0.01244   0.01274   0.01345   0.01654
  Beta virt. eigenvalues --    0.01744   0.01773   0.01847   0.01933   0.02034
  Beta virt. eigenvalues --    0.02198   0.02225   0.02331   0.02344   0.02426
  Beta virt. eigenvalues --    0.02447   0.02452   0.02608   0.02625   0.02724
  Beta virt. eigenvalues --    0.02865   0.02902   0.03041   0.03076   0.03717
  Beta virt. eigenvalues --    0.04311   0.04565   0.05095   0.06352   0.06944
  Beta virt. eigenvalues --    0.07083   0.07250   0.07290   0.07303   0.07553
  Beta virt. eigenvalues --    0.08275   0.08303   0.08428   0.08635   0.08830
  Beta virt. eigenvalues --    0.09026   0.09118   0.09126   0.09230   0.09842
  Beta virt. eigenvalues --    0.10022   0.10130   0.10220   0.10542   0.10787
  Beta virt. eigenvalues --    0.11216   0.11345   0.12238   0.14043   0.15310
  Beta virt. eigenvalues --    0.15611   0.27444   0.28405   0.29461   0.29846
  Beta virt. eigenvalues --    0.29862   0.29878   0.32382   0.32538   0.32625
  Beta virt. eigenvalues --    0.32711   0.33753   0.34429   0.35252   0.35331
  Beta virt. eigenvalues --    0.35380   0.35382   0.35397   0.35428   0.35444
  Beta virt. eigenvalues --    0.35520   0.35608   0.36020   0.36893   0.37568
  Beta virt. eigenvalues --    0.38564   0.38572   0.39155   0.41937   0.42458
  Beta virt. eigenvalues --    0.42778   0.42923   0.43094   0.43195   0.43475
  Beta virt. eigenvalues --    0.43530   0.43590   0.43699   0.43763   0.43829
  Beta virt. eigenvalues --    0.44104   0.44726   0.44742   0.44952   0.45891
  Beta virt. eigenvalues --    0.46681   0.47893   0.47961   0.48336   0.49209
  Beta virt. eigenvalues --    0.50277   0.50616   0.50619   0.52598   0.62551
  Beta virt. eigenvalues --    0.70660   0.76232   2.00165   2.01894   2.03897
  Beta virt. eigenvalues --    2.03976   2.08799   2.12033   2.16501   4.40715
  Beta virt. eigenvalues --    4.41319   4.41548   4.42909   4.43143   4.43260
  Beta virt. eigenvalues --    4.43303   4.43465   4.43467   4.43766   4.43996
  Beta virt. eigenvalues --    4.44169   4.44452   4.45267   4.45491   4.46360
  Beta virt. eigenvalues --    4.46552   4.47398   4.57350   4.62053   4.69688
  Beta virt. eigenvalues --   96.18696  96.21059  96.23296  96.23586  96.29631
  Beta virt. eigenvalues --   96.34779  96.39691
          Condensed to atoms (all electrons):
               1          2          3          4          5          6
     1  Na  11.008400   0.000000   0.000000   0.000000   0.000000   0.001718
     2  Na   0.000000  11.039182   0.246190  -0.107032  -0.153570   0.000000
     3  Na   0.000000   0.246190  10.911008   0.084996  -0.099622   0.000000
     4  Na   0.000000  -0.107032   0.084996  10.586260   0.352685   0.000000
     5  Na   0.000000  -0.153570  -0.099622   0.352685  10.816254   0.000000
     6  Na   0.001718   0.000000   0.000000   0.000000   0.000000  10.683935
     7  Na  -0.013334   0.000000   0.000000   0.000000   0.000000   0.358884
               7
     1  Na  -0.013334
     2  Na   0.000000
     3  Na   0.000000
     4  Na   0.000000
     5  Na   0.000000
     6  Na   0.358884
     7  Na  10.613131
          Atomic-Atomic Spin Densities.
               1          2          3          4          5          6
     1  Na   1.007358   0.000000   0.000000   0.000000   0.000000   0.005375
     2  Na   0.000000   0.000000   0.000000  -0.000000   0.000000   0.000000
     3  Na   0.000000   0.000000   0.000000  -0.000000   0.000000   0.000000
     4  Na   0.000000  -0.000000  -0.000000   0.000000   0.000000   0.000000
     5  Na   0.000000   0.000000   0.000000   0.000000  -0.000000   0.000000
     6  Na   0.005375   0.000000   0.000000   0.000000   0.000000   0.000314
     7  Na  -0.009539   0.000000   0.000000   0.000000   0.000000  -0.005145
               7
     1  Na  -0.009539
     2  Na   0.000000
     3  Na   0.000000
     4  Na   0.000000
     5  Na   0.000000
     6  Na  -0.005145
     7  Na   0.010947
 Mulliken charges and spin densities:
               1          2
     1  Na   0.003217   1.003193
     2  Na  -0.024771   0.000000
     3  Na  -0.142572   0.000000
     4  Na   0.083090  -0.000000
     5  Na   0.084253  -0.000000
     6  Na  -0.044536   0.000544
     7  Na   0.041319  -0.003737
 Sum of Mulliken charges =  -0.00000   1.00000
 Mulliken charges and spin densities with hydrogens summed into heavy atoms:
               1          2
     1  Na   0.003217   1.003193
     2  Na  -0.024771   0.000000
     3  Na  -0.142572   0.000000
     4  Na   0.083090  -0.000000
     5  Na   0.084253  -0.000000
     6  Na  -0.044536   0.000544
     7  Na   0.041319  -0.003737
 Electronic spatial extent (au):  <R**2>=         612692.6684
 Charge=             -0.0000 electrons
 Dipole moment (field-independent basis, Debye):
    X=              0.2172    Y=             -1.6043    Z=             -0.3215  Tot=              1.6506
 Quadrupole moment (field-independent basis, Debye-Ang):
   XX=            -84.6767   YY=            -78.8888   ZZ=            -72.1227
   XY=             68.9422   XZ=              6.0576   YZ=             -4.3174
 Traceless Quadrupole moment (field-independent basis, Debye-Ang):
   XX=             -6.1140   YY=             -0.3261   ZZ=              6.4400
   XY=             68.9422   XZ=              6.0576   YZ=             -4.3174
 Octapole moment (field-independent basis, Debye-Ang**2):
  XXX=           1058.0306  YYY=            -45.8164  ZZZ=             -3.4171  XYY=             24.5882
  XXY=          -2860.2415  XXZ=           -555.9257  XZZ=            -94.9196  YZZ=             -5.0396
  YYZ=             10.4314  XYZ=             67.0918
 Hexadecapole moment (field-independent basis, Debye-Ang**3):
 XXXX=        -904289.6009 YYYY=          -5283.4741 ZZZZ=           -806.6247 XXXY=         142417.1051
 XXXZ=         -32045.8419 YYYX=            541.7973 YYYZ=            -74.6295 ZZZX=            295.9907
 ZZZY=            -25.2527 XXYY=        -175940.0991 XXZZ=        -161515.7748 YYZZ=           -981.4605
 XXYZ=          -6975.5508 YYXZ=            369.1724 ZZXY=           -564.3835
 N-N= 1.322243674465D+02 E-N=-2.993072274610D+03  KE= 1.132841530033D+03
                          Isotropic Fermi Contact Couplings
        Atom                 a.u.       MegaHertz       Gauss      10(-4) cm-1
     1  Na(23)             0.79357     938.81999     334.99432     313.15664
     2  Na(23)             0.00000       0.00000       0.00000       0.00000
     3  Na(23)            -0.00000      -0.00000      -0.00000      -0.00000
     4  Na(23)             0.00000       0.00000       0.00000       0.00000
     5  Na(23)            -0.00000      -0.00000      -0.00000      -0.00000
     6  Na(23)            -0.00002      -0.02504      -0.00893      -0.00835
     7  Na(23)             0.00146       1.72721       0.61631       0.57613
 --------------------------------------------------------
       Center         ----  Spin Dipole Couplings  ----
                      3XX-RR        3YY-RR        3ZZ-RR
 --------------------------------------------------------
     1   Atom       -0.000017      0.000027     -0.000010
     2   Atom        0.000000     -0.000000     -0.000000
     3   Atom        0.000000     -0.000000     -0.000000
     4   Atom        0.000000     -0.000000     -0.000000
     5   Atom        0.000000     -0.000000     -0.000000
     6   Atom       -0.000206      0.000486     -0.000280
     7   Atom       -0.000123      0.000283     -0.000160
 --------------------------------------------------------
                        XY            XZ            YZ
 --------------------------------------------------------
     1   Atom        0.000015      0.000002     -0.000010
     2   Atom        0.000000     -0.000000     -0.000000
     3   Atom        0.000000      0.000000      0.000000
     4   Atom        0.000000      0.000000      0.000000
     5   Atom        0.000000     -0.000000     -0.000000
     6   Atom        0.000046     -0.000056     -0.000088
     7   Atom        0.000029     -0.000029     -0.000052
 --------------------------------------------------------


 ---------------------------------------------------------------------------------
              Anisotropic Spin Dipole Couplings in Principal Axis System
 ---------------------------------------------------------------------------------

       Atom             a.u.   MegaHertz   Gauss  10(-4) cm-1        Axes

              Baa    -0.0000    -0.003    -0.001    -0.001  0.8581 -0.3402 -0.3847
     1 Na(23) Bbb    -0.0000    -0.001    -0.001    -0.000  0.4325  0.0746  0.8986
              Bcc     0.0000     0.005     0.002     0.002  0.2770  0.9374 -0.2112
 
              Baa    -0.0000    -0.000    -0.000    -0.000  0.0215  0.1558  0.9876
     2 Na(23) Bbb    -0.0000    -0.000    -0.000    -0.000 -0.0378  0.9872 -0.1549
              Bcc     0.0000     0.000     0.000     0.000  0.9991  0.0340 -0.0271
 
              Baa    -0.0000    -0.000    -0.000    -0.000 -0.0140  0.1599  0.9870
     3 Na(23) Bbb    -0.0000    -0.000    -0.000    -0.000 -0.0444  0.9861 -0.1604
              Bcc     0.0000     0.000     0.000     0.000  0.9989  0.0461  0.0068
 
              Baa    -0.0000    -0.000    -0.000    -0.000 -0.0170  0.1591  0.9871
     4 Na(23) Bbb    -0.0000    -0.000    -0.000    -0.000 -0.0748  0.9843 -0.1599
              Bcc     0.0000     0.000     0.000     0.000  0.9971  0.0765  0.0049
 
              Baa    -0.0000    -0.000    -0.000    -0.000 -0.0108  0.1586  0.9873
     5 Na(23) Bbb    -0.0000    -0.000    -0.000    -0.000 -0.0923  0.9830 -0.1589
              Bcc     0.0000     0.000     0.000     0.000  0.9957  0.0929 -0.0040
 
              Baa    -0.0003    -0.044    -0.016    -0.015  0.4313  0.0744  0.8991
     6 Na(23) Bbb    -0.0002    -0.026    -0.009    -0.009  0.8992 -0.1165 -0.4217
              Bcc     0.0005     0.071     0.025     0.024  0.0734  0.9904 -0.1171
 
              Baa    -0.0002    -0.025    -0.009    -0.008  0.4313  0.0744  0.8992
     7 Na(23) Bbb    -0.0001    -0.016    -0.006    -0.005  0.8989 -0.1206 -0.4212
              Bcc     0.0003     0.041     0.015     0.014  0.0771  0.9899 -0.1189
 

 ---------------------------------------------------------------------------------

 No NMR shielding tensors so no spin-rotation constants.
 Leave Link  601 at Thu Nov 23 12:40:56 2023, MaxMem=   104857600 cpu:              18.4 elap:              17.3
 (Enter /home/sekinelabo/g16/l701.exe)
 ... and contract with generalized density number  0.
 Compute integral first derivatives.
 Leave Link  701 at Thu Nov 23 12:41:03 2023, MaxMem=   104857600 cpu:               7.2 elap:               6.3
 (Enter /home/sekinelabo/g16/l702.exe)
 L702 exits ... SP integral derivatives will be done elsewhere.
 Leave Link  702 at Thu Nov 23 12:41:03 2023, MaxMem=   104857600 cpu:               0.7 elap:               0.7
 (Enter /home/sekinelabo/g16/l703.exe)
 Integral derivatives from FoFJK, PRISM(SPDF).
 Compute integral first derivatives, UseDBF=F ICtDFT=           0.
 Calling FoFJK, ICntrl=      2127 FMM=F ISym2X=0 I1Cent= 0 IOpClX= 1 NMat=1 NMatS=1 NMatT=0.
 FoFJK:  IHMeth= 1 ICntrl=    2127 DoSepK=F KAlg= 0 I1Cent=           0 FoldK=F
 IRaf=         0 NMat=       1 IRICut=       1 DoRegI=T DoRafI=F ISym2E= 0 IDoP0=0 IntGTp=1.
 FoFCou: FMM=F IPFlag=           0 FMFlag=      100000 FMFlg1=         800
         NFxFlg=           0 DoJE=F BraDBF=F KetDBF=F FulRan=T
         wScrn=  0.000000 ICntrl=      2127 IOpCl=  1 I1Cent=           0 NGrid=           0
         NMat0=    1 NMatS0=      1 NMatT0=    0 NMatD0=    1 NMtDS0=    0 NMtDT0=    0
 Symmetry not used in FoFCou.
 Leave Link  703 at Thu Nov 23 12:41:20 2023, MaxMem=   104857600 cpu:              22.7 elap:              16.8
 (Enter /home/sekinelabo/g16/l716.exe)
 Dipole        = 8.54343836D-02-6.31180618D-01-1.26498263D-01
 ***** Axes restored to original set *****
 -------------------------------------------------------------------
 Center     Atomic                   Forces (Hartrees/Bohr)
 Number     Number              X              Y              Z
 -------------------------------------------------------------------
      1       11          -0.000005752    0.000001351    0.000000818
      2       11          -0.001037205   -0.003948576    0.003970185
      3       11           0.006200204    0.003263871   -0.006754076
      4       11          -0.004881017    0.001702949    0.001338049
      5       11          -0.000281983   -0.001018244    0.001445842
      6       11           0.000644795   -0.001912580    0.003471497
      7       11          -0.000639043    0.001911229   -0.003472315
 -------------------------------------------------------------------
 Cartesian Forces:  Max     0.006754076 RMS     0.003016676
 Z-matrix is all fixed cartesians, so copy forces.
 Force constants in Cartesian coordinates: 
                1             2             3             4             5 
      1  0.100000D+01
      2  0.000000D+00  0.100000D+01
      3  0.000000D+00  0.000000D+00  0.100000D+01
      4  0.000000D+00  0.000000D+00  0.000000D+00  0.100000D+01
      5  0.000000D+00  0.000000D+00  0.000000D+00  0.000000D+00  0.100000D+01
      6  0.000000D+00  0.000000D+00  0.000000D+00  0.000000D+00  0.000000D+00
      7  0.000000D+00  0.000000D+00  0.000000D+00  0.000000D+00  0.000000D+00
      8  0.000000D+00  0.000000D+00  0.000000D+00  0.000000D+00  0.000000D+00
      9  0.000000D+00  0.000000D+00  0.000000D+00  0.000000D+00  0.000000D+00
     10  0.000000D+00  0.000000D+00  0.000000D+00  0.000000D+00  0.000000D+00
     11  0.000000D+00  0.000000D+00  0.000000D+00  0.000000D+00  0.000000D+00
     12  0.000000D+00  0.000000D+00  0.000000D+00  0.000000D+00  0.000000D+00
     13  0.000000D+00  0.000000D+00  0.000000D+00  0.000000D+00  0.000000D+00
     14  0.000000D+00  0.000000D+00  0.000000D+00  0.000000D+00  0.000000D+00
     15  0.000000D+00  0.000000D+00  0.000000D+00  0.000000D+00  0.000000D+00
     16  0.000000D+00  0.000000D+00  0.000000D+00  0.000000D+00  0.000000D+00
     17  0.000000D+00  0.000000D+00  0.000000D+00  0.000000D+00  0.000000D+00
     18  0.000000D+00  0.000000D+00  0.000000D+00  0.000000D+00  0.000000D+00
     19  0.000000D+00  0.000000D+00  0.000000D+00  0.000000D+00  0.000000D+00
     20  0.000000D+00  0.000000D+00  0.000000D+00  0.000000D+00  0.000000D+00
     21  0.000000D+00  0.000000D+00  0.000000D+00  0.000000D+00  0.000000D+00
                6             7             8             9            10 
      6  0.100000D+01
      7  0.000000D+00  0.257797D-01
      8  0.000000D+00 -0.845014D-02  0.316462D-02
      9  0.000000D+00 -0.923404D-02  0.129502D-02  0.109033D-01
     10  0.000000D+00 -0.240603D-01  0.657182D-02  0.143849D-01  0.327280D-01
     11  0.000000D+00  0.801469D-02 -0.268893D-02 -0.259950D-02 -0.120519D-01
     12  0.000000D+00  0.805609D-02 -0.820959D-05 -0.144321D-01 -0.591477D-02
     13  0.000000D+00 -0.171943D-02  0.187833D-02 -0.515084D-02 -0.866776D-02
     14  0.000000D+00  0.435454D-03 -0.475697D-03  0.130448D-02  0.548004D-02
     15  0.000000D+00  0.117795D-02 -0.128681D-02  0.352876D-02 -0.847011D-02
     16  0.000000D+00  0.000000D+00  0.000000D+00  0.000000D+00  0.000000D+00
     17  0.000000D+00  0.000000D+00  0.000000D+00  0.000000D+00  0.000000D+00
     18  0.000000D+00  0.000000D+00  0.000000D+00  0.000000D+00  0.000000D+00
     19  0.000000D+00  0.000000D+00  0.000000D+00  0.000000D+00  0.000000D+00
     20  0.000000D+00  0.000000D+00  0.000000D+00  0.000000D+00  0.000000D+00
     21  0.000000D+00  0.000000D+00  0.000000D+00  0.000000D+00  0.000000D+00
               11            12            13            14            15 
     11  0.637389D-02
     12 -0.631321D-02  0.383137D-01
     13  0.403716D-02 -0.214132D-02  0.103872D-01
     14 -0.368497D-02  0.632142D-02 -0.591549D-02  0.416066D-02
     15  0.891271D-02 -0.238816D-01  0.729216D-02 -0.762589D-02  0.203528D-01
     16  0.000000D+00  0.000000D+00  0.000000D+00  0.000000D+00  0.000000D+00
     17  0.000000D+00  0.000000D+00  0.000000D+00  0.000000D+00  0.000000D+00
     18  0.000000D+00  0.000000D+00  0.000000D+00  0.000000D+00  0.000000D+00
     19  0.000000D+00  0.000000D+00  0.000000D+00  0.000000D+00  0.000000D+00
     20  0.000000D+00  0.000000D+00  0.000000D+00  0.000000D+00  0.000000D+00
     21  0.000000D+00  0.000000D+00  0.000000D+00  0.000000D+00  0.000000D+00
               16            17            18            19            20 
     16  0.112309D-02
     17 -0.336313D-02  0.100710D-01
     18  0.611237D-02 -0.183037D-01  0.332662D-01
     19 -0.112309D-02  0.336313D-02 -0.611237D-02  0.112309D-02
     20  0.336313D-02 -0.100710D-01  0.183037D-01 -0.336313D-02  0.100710D-01
     21 -0.611237D-02  0.183037D-01 -0.332662D-01  0.611237D-02 -0.183037D-01
               21 
     21  0.332662D-01
 Leave Link  716 at Thu Nov 23 12:41:21 2023, MaxMem=   104857600 cpu:               0.7 elap:               0.5
 (Enter /home/sekinelabo/g16/l103.exe)

 GradGradGradGradGradGradGradGradGradGradGradGradGradGradGradGradGradGrad
 Berny optimization.
 Search for a local minimum.
 Step number   1 out of a maximum of    2
 All quantities printed in internal units (Hartrees-Bohrs-Radians)
 Second derivative matrix not updated -- first step.
 ITU=  0
     Eigenvalues ---   -0.00000  -0.00000   0.00000   0.00000   0.00000
     Eigenvalues ---    0.01937   0.06230   0.07050   0.08892   0.10656
     Eigenvalues ---    0.65673   0.71429   0.71686   0.74542   1.00000
 Eigenvalue     1 is  -1.11D-15 should be greater than     0.000000 Eigenvector:
                          Z3        Z6        Z7        Z4        Y5
   1                    0.67716  -0.40092  -0.39839   0.23414  -0.19340
                          Y4        X4        X7        X5        Z5
   1                    0.19331  -0.16934   0.14868   0.12617  -0.11199
 Eigenvalue     2 is  -8.88D-16 should be greater than     0.000000 Eigenvector:
                          Y7        Y6        Z7        Z6        X7
   1                    0.58136  -0.56121   0.35597  -0.35295  -0.22216
                          X6        Y5        Z5        X3        Z3
   1                    0.21465  -0.01621  -0.00563   0.00447   0.00313
 Eigenvalue     3 is   0.00D+00 Eigenvector:
                          X7        X6        Y7        Y6        Y3
   1                    0.59441  -0.59360   0.22327  -0.21033   0.20315
                          Z7        Y5        Z5        Z6        Z4
   1                    0.18693  -0.18632  -0.17298   0.16664  -0.12668
 Eigenvalue     4 is   4.44D-16 Eigenvector:
                          Z5        X4        Z3        Z4        X5
   1                    0.57852   0.33284  -0.32633   0.31232  -0.31052
                          Z6        Z7        X7        X6        Y4
   1                   -0.28686  -0.27766   0.16269  -0.16107   0.15274
 Eigenvalue     5 is   6.66D-16 Eigenvector:
                          Y4        Y5        Z5        Y3        X4
   1                    0.71121  -0.40596  -0.30196  -0.29661   0.23133
                          Z6        Z7        X3        X5        X7
   1                    0.17265   0.16440  -0.11923  -0.09414  -0.07951
 Quadratic step=4.035D+01 exceeds max=3.000D-01 adjusted using Lamda=-1.476D-02.
 Angle between NR and scaled steps=  25.10 degrees.
 Angle between quadratic step and forces=  50.88 degrees.
 Linear search not attempted -- first point.
 B after Tr=     0.000000   -0.000000    0.000000
         Rot=    1.000000   -0.000000   -0.000000   -0.000000 Ang=   0.00 deg.
 Variable       Old X    -DE/DX   Delta X   Delta X   Delta X     New X
                                 (Linear)    (Quad)   (Total)
    X1       19.64786  -0.00001   0.00000  -0.00291  -0.00291  19.64495
    Y1        2.87000   0.00000   0.00000  -0.00839  -0.00839   2.86161
    Z1      186.59364   0.00000   0.00000   0.00089   0.00089 186.59453
    X2       20.04659  -0.00104   0.00000   0.00075   0.00075  20.04734
    Y2        6.55434  -0.00395   0.00000  -0.00925  -0.00925   6.54509
    Z2        2.14654   0.00397   0.00000   0.00487   0.00487   2.15141
    X3       16.55241   0.00620   0.00000   0.07355   0.07355  16.62597
    Y3        1.04373   0.00326   0.00000   0.03981   0.03981   1.08354
    Z3        7.96960  -0.00675   0.00000  -0.22488  -0.22488   7.74472
    X4       11.42432  -0.00488   0.00000  -0.01667  -0.01667  11.40765
    Y4        2.62192   0.00170   0.00000  -0.05651  -0.05651   2.56541
    Z4       10.25694   0.00134   0.00000   0.00530   0.00530  10.26225
    X5        8.66101  -0.00028   0.00000  -0.04615  -0.04615   8.61486
    Y5        4.86170  -0.00102   0.00000   0.01802   0.01802   4.87972
    Z5        5.39543   0.00145   0.00000   0.11191   0.11191   5.50734
    X6        4.13372   0.00064   0.00000  -0.04745  -0.04745   4.08627
    Y6        6.87615  -0.00191   0.00000  -0.02892  -0.02892   6.84723
    Z6      188.11222   0.00347   0.00000   0.08325   0.08325 188.19547
    X7        3.26605  -0.00064   0.00000   0.03887   0.03887   3.30492
    Y7        9.47441   0.00191   0.00000   0.04524   0.04524   9.51965
    Z7      183.38998  -0.00347   0.00000   0.01866   0.01866 183.40864
         Item               Value     Threshold  Converged?
 Maximum Force            0.006754     0.000450     NO 
 RMS     Force            0.003017     0.000300     NO 
 Maximum Displacement     0.224879     0.001800     NO 
 RMS     Displacement     0.065522     0.001200     NO 
 Predicted change in Energy=-1.978815D-03
 GradGradGradGradGradGradGradGradGradGradGradGradGradGradGradGradGradGrad

 Leave Link  103 at Thu Nov 23 12:41:23 2023, MaxMem=   104857600 cpu:               3.7 elap:               2.4
 (Enter /home/sekinelabo/g16/l9999.exe)
 1\1\GINC-SEKINELABO-XA7R-R37\Force\UB3LYP\6-311+G(d)\Na7(2)\SEKINELABO
 \23-Nov-2023\0\\#P B3LYP/6-311+g(d) force\\DPGEN\\0,2\Na,10.3972,1.518
 74,98.7411\Na,10.6082,3.46841,1.1359\Na,8.75916,0.552318,4.21733\Na,6.
 04549,1.38746,5.42774\Na,4.58321,2.5727,2.85514\Na,2.18747,3.6387,99.5
 447\Na,1.72832,5.01364,97.0458\\Version=ES64L-G16RevB.01\State=2-A\HF=
 -1136.0695362\S2=0.75002\S2-1=0.\S2A=0.75\RMSD=1.497e-09\RMSF=3.017e-0
 3\Dipole=-0.6456039,0.0218828,0.0663824\Quadrupole=-4.3712411,5.742874
 8,-1.3716338,-0.8228306,50.9531562,-7.4688425\PG=C01 [X(Na7)]\\@


 YOU WILL NEVER "FIND" TIME FOR ANYTHING.
 IF YOU WANT TIME, YOU MUST MAKE IT.

                        -- CHARLES BIXTON
 Job cpu time:       0 days  0 hours  9 minutes 17.3 seconds.
 Elapsed time:       0 days  0 hours 11 minutes  2.9 seconds.
 File lengths (MBytes):  RWF=     46 Int=      0 D2E=      0 Chk=      4 Scr=      1
 Normal termination of Gaussian 16 at Thu Nov 23 12:41:24 2023.
