 Entering Gaussian System, Link 0=g16
 Initial command:
 /home/sekinelabo/g16/l1.exe "/home/sekinelabo/g16temp/Gau-1046223.inp" -scrdir="/home/sekinelabo/g16temp/"
 Entering Link 1 = /home/sekinelabo/g16/l1.exe PID=   1046251.
  
 Copyright (c) 1988-2017, Gaussian, Inc.  All Rights Reserved.
  
 This is part of the Gaussian(R) 16 program.  It is based on
 the Gaussian(R) 09 system (copyright 2009, Gaussian, Inc.),
 the Gaussian(R) 03 system (copyright 2003, Gaussian, Inc.),
 the Gaussian(R) 98 system (copyright 1998, Gaussian, Inc.),
 the Gaussian(R) 94 system (copyright 1995, Gaussian, Inc.),
 the Gaussian 92(TM) system (copyright 1992, Gaussian, Inc.),
 the Gaussian 90(TM) system (copyright 1990, Gaussian, Inc.),
 the Gaussian 88(TM) system (copyright 1988, Gaussian, Inc.),
 the Gaussian 86(TM) system (copyright 1986, Carnegie Mellon
 University), and the Gaussian 82(TM) system (copyright 1983,
 Carnegie Mellon University). Gaussian is a federally registered
 trademark of Gaussian, Inc.
  
 This software contains proprietary and confidential information,
 including trade secrets, belonging to Gaussian, Inc.
  
 This software is provided under written license and may be
 used, copied, transmitted, or stored only in accord with that
 written license.
  
 The following legend is applicable only to US Government
 contracts under FAR:
  
                    RESTRICTED RIGHTS LEGEND
  
 Use, reproduction and disclosure by the US Government is
 subject to restrictions as set forth in subparagraphs (a)
 and (c) of the Commercial Computer Software - Restricted
 Rights clause in FAR 52.227-19.
  
 Gaussian, Inc.
 340 Quinnipiac St., Bldg. 40, Wallingford CT 06492
  
  
 ---------------------------------------------------------------
 Warning -- This program may not be used in any manner that
 competes with the business of Gaussian, Inc. or will provide
 assistance to any competitor of Gaussian, Inc.  The licensee
 of this program is prohibited from giving any competitor of
 Gaussian, Inc. access to this program.  By using this program,
 the user acknowledges that Gaussian, Inc. is engaged in the
 business of creating and licensing software in the field of
 computational chemistry and represents and warrants to the
 licensee that it is not a competitor of Gaussian, Inc. and that
 it will not use this program in any manner prohibited above.
 ---------------------------------------------------------------
  

 Cite this work as:
 Gaussian 16, Revision B.01,
 M. J. Frisch, G. W. Trucks, H. B. Schlegel, G. E. Scuseria, 
 M. A. Robb, J. R. Cheeseman, G. Scalmani, V. Barone, 
 G. A. Petersson, H. Nakatsuji, X. Li, M. Caricato, A. V. Marenich, 
 J. Bloino, B. G. Janesko, R. Gomperts, B. Mennucci, H. P. Hratchian, 
 J. V. Ortiz, A. F. Izmaylov, J. L. Sonnenberg, D. Williams-Young, 
 F. Ding, F. Lipparini, F. Egidi, J. Goings, B. Peng, A. Petrone, 
 T. Henderson, D. Ranasinghe, V. G. Zakrzewski, J. Gao, N. Rega, 
 G. Zheng, W. Liang, M. Hada, M. Ehara, K. Toyota, R. Fukuda, 
 J. Hasegawa, M. Ishida, T. Nakajima, Y. Honda, O. Kitao, H. Nakai, 
 T. Vreven, K. Throssell, J. A. Montgomery, Jr., J. E. Peralta, 
 F. Ogliaro, M. J. Bearpark, J. J. Heyd, E. N. Brothers, K. N. Kudin, 
 V. N. Staroverov, T. A. Keith, R. Kobayashi, J. Normand, 
 K. Raghavachari, A. P. Rendell, J. C. Burant, S. S. Iyengar, 
 J. Tomasi, M. Cossi, J. M. Millam, M. Klene, C. Adamo, R. Cammi, 
 J. W. Ochterski, R. L. Martin, K. Morokuma, O. Farkas, 
 J. B. Foresman, and D. J. Fox, Gaussian, Inc., Wallingford CT, 2016.
 
 ******************************************
 Gaussian 16:  ES64L-G16RevB.01 20-Dec-2017
                23-Nov-2023 
 ******************************************
 %nprocshared=14
 Will use up to   14 processors via shared memory.
 -------------------------
 #P B3LYP/6-311+g(d) force
 -------------------------
 1/10=7,30=1,38=1/1,3;
 2/12=2,17=6,18=5,40=1/2;
 3/5=4,6=6,7=11,11=2,25=1,30=1,71=1,74=-5/1,2,3;
 4//1;
 5/5=2,38=5/2;
 6/7=2,8=2,9=2,10=2,28=1/1;
 7/29=1/1,2,3,16;
 1/10=7,30=1/3;
 99//99;
 Leave Link    1 at Thu Nov 23 12:30:20 2023, MaxMem=           0 cpu:               0.5 elap:               0.3
 (Enter /home/sekinelabo/g16/l101.exe)
 -----
 DPGEN
 -----
 Symbolic Z-matrix:
 Charge =  0 Multiplicity = 2
 Na                    11.4629   1.29541   99.1624 
 Na                    9.82265   3.07641   0.99044 
 Na                    9.58298   1.1713    3.1503 
 Na                    5.77241   1.46952   4.62845 
 Na                    3.19313   2.06155   3.54808 
 Na                    2.68648   3.60065   99.6744 
 Na                    1.78844   5.47712   97.8135 
 
 ITRead=  0  0  0  0  0  0  0
 MicOpt= -1 -1 -1 -1 -1 -1 -1
 NAtoms=      7 NQM=        7 NQMF=       0 NMMI=      0 NMMIF=      0
                NMic=       0 NMicF=      0.
                    Isotopes and Nuclear Properties:
 (Nuclear quadrupole moments (NQMom) in fm**2, nuclear magnetic moments (NMagM)
  in nuclear magnetons)

  Atom         1           2           3           4           5           6           7
 IAtWgt=          23          23          23          23          23          23          23
 AtmWgt=  22.9897697  22.9897697  22.9897697  22.9897697  22.9897697  22.9897697  22.9897697
 NucSpn=           3           3           3           3           3           3           3
 AtZEff=  -0.0000000  -0.0000000  -0.0000000  -0.0000000  -0.0000000  -0.0000000  -0.0000000
 NQMom=   10.4000000  10.4000000  10.4000000  10.4000000  10.4000000  10.4000000  10.4000000
 NMagM=    2.2175200   2.2175200   2.2175200   2.2175200   2.2175200   2.2175200   2.2175200
 AtZNuc=  11.0000000  11.0000000  11.0000000  11.0000000  11.0000000  11.0000000  11.0000000
 Leave Link  101 at Thu Nov 23 12:30:23 2023, MaxMem=   104857600 cpu:               2.5 elap:               3.0
 (Enter /home/sekinelabo/g16/l103.exe)

 GradGradGradGradGradGradGradGradGradGradGradGradGradGradGradGradGradGrad
 Berny optimization.
 Initialization pass.
 Trust Radius=3.00D-01 FncErr=1.00D-07 GrdErr=1.00D-07 EigMax=2.50D+02 EigMin=1.00D-04
 Number of steps in this run=      2 maximum allowed number of steps=      2.
 GradGradGradGradGradGradGradGradGradGradGradGradGradGradGradGradGradGrad

 Leave Link  103 at Thu Nov 23 12:30:24 2023, MaxMem=   104857600 cpu:               0.5 elap:               0.5
 (Enter /home/sekinelabo/g16/l202.exe)
                          Input orientation:                          
 ---------------------------------------------------------------------
 Center     Atomic      Atomic             Coordinates (Angstroms)
 Number     Number       Type             X           Y           Z
 ---------------------------------------------------------------------
      1         11           0       11.462900    1.295410   99.162400
      2         11           0        9.822650    3.076410    0.990441
      3         11           0        9.582980    1.171300    3.150300
      4         11           0        5.772410    1.469520    4.628450
      5         11           0        3.193130    2.061550    3.548080
      6         11           0        2.686480    3.600650   99.674400
      7         11           0        1.788440    5.477120   97.813500
 ---------------------------------------------------------------------
                    Distance matrix (angstroms):
                    1          2          3          4          5
     1  Na   0.000000
     2  Na  98.201812   0.000000
     3  Na  96.030583   2.889961   0.000000
     4  Na  94.705225   5.676412   4.098086   0.000000
     5  Na  95.974342   7.177882   6.463819   2.858388   0.000000
     6  Na   9.088555  98.943032  96.800647  95.119910  96.139976
     7  Na  10.625507  97.185476  95.081104  93.356234  94.337737
                    6          7
     6  Na   0.000000
     7  Na   2.791158   0.000000
 Stoichiometry    Na7(2)
 Framework group  C1[X(Na7)]
 Deg. of freedom    15
 Full point group                 C1      NOp   1
 Largest Abelian subgroup         C1      NOp   1
 Largest concise Abelian subgroup C1      NOp   1
                         Standard orientation:                         
 ---------------------------------------------------------------------
 Center     Atomic      Atomic             Coordinates (Angstroms)
 Number     Number       Type             X           Y           Z
 ---------------------------------------------------------------------
      1         11           0       54.889661    6.511552   -0.645704
      2         11           0      -43.193931    2.327383    1.741258
      3         11           0      -41.059583    2.586299   -0.189907
      4         11           0      -39.504600   -1.155114   -0.804857
      5         11           0      -40.526310   -3.824622   -0.819723
      6         11           0       55.604494   -2.546900   -0.457856
      7         11           0       53.790270   -3.898600    1.176788
 ---------------------------------------------------------------------
 Rotational constants (GHZ):           0.2230555           0.0013949           0.0013874
 Leave Link  202 at Thu Nov 23 12:30:25 2023, MaxMem=   104857600 cpu:               0.8 elap:               0.9
 (Enter /home/sekinelabo/g16/l301.exe)
 Standard basis: 6-311+G(d) (5D, 7F)
 Ernie: Thresh=  0.10000D-02 Tol=  0.10000D-05 Strict=F.
 There are   217 symmetry adapted cartesian basis functions of A   symmetry.
 There are   210 symmetry adapted basis functions of A   symmetry.
   210 basis functions,   350 primitive gaussians,   217 cartesian basis functions
    39 alpha electrons       38 beta electrons
       nuclear repulsion energy       134.3065794446 Hartrees.
 IExCor=  402 DFT=T Ex+Corr=B3LYP ExCW=0 ScaHFX=  0.200000
 ScaDFX=  0.800000  0.720000  1.000000  0.810000 ScalE2=  1.000000  1.000000
 IRadAn=      5 IRanWt=     -1 IRanGd=            0 ICorTp=0 IEmpDi=  4
 NAtoms=    7 NActive=    7 NUniq=    7 SFac= 1.00D+00 NAtFMM=   60 NAOKFM=F Big=F
 Integral buffers will be    131072 words long.
 Raffenetti 2 integral format.
 Two-electron integral symmetry is turned on.
 Leave Link  301 at Thu Nov 23 12:30:25 2023, MaxMem=   104857600 cpu:               0.7 elap:               0.9
 (Enter /home/sekinelabo/g16/l302.exe)
 NPDir=0 NMtPBC=     1 NCelOv=     1 NCel=       1 NClECP=     1 NCelD=      1
         NCelK=      1 NCelE2=     1 NClLst=     1 CellRange=     0.0.
 One-electron integrals computed using PRISM.
 One-electron integral symmetry used in STVInt
 NBasis=   210 RedAO= T EigKep=  3.01D-05  NBF=   210
 NBsUse=   210 1.00D-06 EigRej= -1.00D+00 NBFU=   210
 Precomputing XC quadrature grid using
 IXCGrd= 4 IRadAn=           5 IRanWt=          -1 IRanGd=           0 AccXCQ= 0.00D+00.
 Generated NRdTot=       0 NPtTot=           0 NUsed=           0 NTot=          32
 NSgBfM=   115   115   115   115   115 MxSgAt=     7 MxSgA2=     4.
 Leave Link  302 at Thu Nov 23 12:31:03 2023, MaxMem=   104857600 cpu:              29.6 elap:              37.6
 (Enter /home/sekinelabo/g16/l303.exe)
 DipDrv:  MaxL=1.
 Leave Link  303 at Thu Nov 23 12:31:06 2023, MaxMem=   104857600 cpu:               2.4 elap:               3.0
 (Enter /home/sekinelabo/g16/l401.exe)
 ExpMin= 7.60D-03 ExpMax= 3.62D+04 ExpMxC= 1.21D+03 IAcc=3 IRadAn=         5 AccDes= 0.00D+00
 Harris functional with IExCor=  402 and IRadAn=       5 diagonalized for initial guess.
 HarFok:  IExCor=  402 AccDes= 0.00D+00 IRadAn=         5 IDoV= 1 UseB2=F ITyADJ=14
 ICtDFT=  3500011 ScaDFX=  1.000000  1.000000  1.000000  1.000000
 FoFCou: FMM=F IPFlag=           0 FMFlag=      100000 FMFlg1=           0
         NFxFlg=           0 DoJE=T BraDBF=F KetDBF=T FulRan=T
         wScrn=  0.000000 ICntrl=       500 IOpCl=  0 I1Cent=   200000004 NGrid=           0
         NMat0=    1 NMatS0=      1 NMatT0=    0 NMatD0=    1 NMtDS0=    0 NMtDT0=    0
 Petite list used in FoFCou.
 Harris En= -1135.85751824362    
 JPrj=0 DoOrth=F DoCkMO=F.
 Initial guess <Sx>= 0.0000 <Sy>= 0.0000 <Sz>= 0.5000 <S**2>= 0.7500 S= 0.5000
 Leave Link  401 at Thu Nov 23 12:31:27 2023, MaxMem=   104857600 cpu:              15.8 elap:              20.3
 (Enter /home/sekinelabo/g16/l502.exe)
 Integral symmetry usage will be decided dynamically.
 UHF open shell SCF:
 Using DIIS extrapolation, IDIIS=  1040.
 NGot=   104857600 LenX=   104758440 LenY=   104710910
 Requested convergence on RMS density matrix=1.00D-08 within 128 cycles.
 Requested convergence on MAX density matrix=1.00D-06.
 Requested convergence on             energy=1.00D-06.
 No special actions if energy rises.
 Fock matrices will be formed incrementally for  20 cycles.

 Cycle   1  Pass 1  IDiag  1:
 FoFJK:  IHMeth= 1 ICntrl=       0 DoSepK=F KAlg= 0 I1Cent=           0 FoldK=F
 IRaf= 450000000 NMat=       1 IRICut=       1 DoRegI=T DoRafI=F ISym2E= 0 IDoP0=0 IntGTp=1.
 FoFCou: FMM=F IPFlag=           0 FMFlag=      100000 FMFlg1=           0
         NFxFlg=           0 DoJE=F BraDBF=F KetDBF=F FulRan=T
         wScrn=  0.000000 ICntrl=         0 IOpCl=  1 I1Cent=           0 NGrid=           0
         NMat0=    1 NMatS0=      1 NMatT0=    0 NMatD0=    1 NMtDS0=    0 NMtDT0=    0
 Symmetry not used in FoFCou.
 E= -1136.06429655346    
 DIIS: error= 1.54D-02 at cycle   1 NSaved=   1.
 NSaved= 1 IEnMin= 1 EnMin= -1136.06429655346     IErMin= 1 ErrMin= 1.54D-02
 ErrMax= 1.54D-02  0.00D+00 EMaxC= 1.00D-01 BMatC= 1.81D-01 BMatP= 1.81D-01
 IDIUse=3 WtCom= 8.46D-01 WtEn= 1.54D-01
 Coeff-Com:  0.100D+01
 Coeff-En:   0.100D+01
 Coeff:      0.100D+01
 Gap=     0.071 Goal=   None    Shift=    0.000
 Gap=     0.048 Goal=   None    Shift=    0.000
 GapD=    0.048 DampG=0.250 DampE=0.500 DampFc=0.2500 IDamp=-1.
 Damping current iteration by 2.50D-01
 RMSDP=1.88D-03 MaxDP=8.44D-02              OVMax= 8.75D-02

 Cycle   2  Pass 1  IDiag  1:
 RMSU=  4.66D-04    CP:  9.97D-01
 E= -1136.07154817234     Delta-E=       -0.007251618875 Rises=F Damp=T
 DIIS: error= 1.07D-02 at cycle   2 NSaved=   2.
 NSaved= 2 IEnMin= 2 EnMin= -1136.07154817234     IErMin= 2 ErrMin= 1.07D-02
 ErrMax= 1.07D-02  0.00D+00 EMaxC= 1.00D-01 BMatC= 7.10D-02 BMatP= 1.81D-01
 IDIUse=3 WtCom= 8.93D-01 WtEn= 1.07D-01
 Coeff-Com: -0.133D+01 0.233D+01
 Coeff-En:   0.000D+00 0.100D+01
 Coeff:     -0.119D+01 0.219D+01
 Gap=     0.058 Goal=   None    Shift=    0.000
 Gap=     0.057 Goal=   None    Shift=    0.000
 RMSDP=1.43D-03 MaxDP=5.20D-02 DE=-7.25D-03 OVMax= 2.07D-02

 Cycle   3  Pass 1  IDiag  1:
 RMSU=  6.50D-04    CP:  9.85D-01  3.00D+00
 E= -1136.08684533911     Delta-E=       -0.015297166772 Rises=F Damp=F
 DIIS: error= 3.97D-04 at cycle   3 NSaved=   3.
 NSaved= 3 IEnMin= 3 EnMin= -1136.08684533911     IErMin= 3 ErrMin= 3.97D-04
 ErrMax= 3.97D-04  0.00D+00 EMaxC= 1.00D-01 BMatC= 1.02D-04 BMatP= 7.10D-02
 IDIUse=3 WtCom= 9.96D-01 WtEn= 3.97D-03
 Coeff-Com:  0.360D-01-0.409D-01 0.100D+01
 Coeff-En:   0.000D+00 0.000D+00 0.100D+01
 Coeff:      0.358D-01-0.407D-01 0.100D+01
 Gap=     0.059 Goal=   None    Shift=    0.000
 Gap=     0.062 Goal=   None    Shift=    0.000
 RMSDP=1.39D-04 MaxDP=5.70D-03 DE=-1.53D-02 OVMax= 1.07D-02

 Cycle   4  Pass 1  IDiag  1:
 RMSU=  1.30D-04    CP:  9.84D-01  3.00D+00  1.07D+00
 E= -1136.08688719126     Delta-E=       -0.000041852144 Rises=F Damp=F
 DIIS: error= 1.69D-04 at cycle   4 NSaved=   4.
 NSaved= 4 IEnMin= 4 EnMin= -1136.08688719126     IErMin= 4 ErrMin= 1.69D-04
 ErrMax= 1.69D-04  0.00D+00 EMaxC= 1.00D-01 BMatC= 2.04D-05 BMatP= 1.02D-04
 IDIUse=3 WtCom= 9.98D-01 WtEn= 1.69D-03
 Coeff-Com:  0.200D-01-0.263D-01 0.323D+00 0.684D+00
 Coeff-En:   0.000D+00 0.000D+00 0.000D+00 0.100D+01
 Coeff:      0.200D-01-0.263D-01 0.322D+00 0.684D+00
 Gap=     0.059 Goal=   None    Shift=    0.000
 Gap=     0.059 Goal=   None    Shift=    0.000
 RMSDP=6.78D-05 MaxDP=4.51D-03 DE=-4.19D-05 OVMax= 6.36D-03

 Cycle   5  Pass 1  IDiag  1:
 RMSU=  4.34D-05    CP:  9.84D-01  3.00D+00  1.10D+00  6.18D-01
 E= -1136.08689921314     Delta-E=       -0.000012021882 Rises=F Damp=F
 DIIS: error= 8.00D-05 at cycle   5 NSaved=   5.
 NSaved= 5 IEnMin= 5 EnMin= -1136.08689921314     IErMin= 5 ErrMin= 8.00D-05
 ErrMax= 8.00D-05  0.00D+00 EMaxC= 1.00D-01 BMatC= 3.82D-06 BMatP= 2.04D-05
 IDIUse=1 WtCom= 1.00D+00 WtEn= 0.00D+00
 Coeff-Com:  0.755D-02-0.102D-01 0.116D+00 0.356D+00 0.532D+00
 Coeff:      0.755D-02-0.102D-01 0.116D+00 0.356D+00 0.532D+00
 Gap=     0.059 Goal=   None    Shift=    0.000
 Gap=     0.059 Goal=   None    Shift=    0.000
 RMSDP=2.79D-05 MaxDP=1.72D-03 DE=-1.20D-05 OVMax= 2.13D-03

 Cycle   6  Pass 1  IDiag  1:
 RMSU=  9.78D-06    CP:  9.84D-01  3.00D+00  1.10D+00  7.04D-01  4.66D-01
 E= -1136.08690213413     Delta-E=       -0.000002920991 Rises=F Damp=F
 DIIS: error= 1.02D-05 at cycle   6 NSaved=   6.
 NSaved= 6 IEnMin= 6 EnMin= -1136.08690213413     IErMin= 6 ErrMin= 1.02D-05
 ErrMax= 1.02D-05  0.00D+00 EMaxC= 1.00D-01 BMatC= 6.25D-08 BMatP= 3.82D-06
 IDIUse=1 WtCom= 1.00D+00 WtEn= 0.00D+00
 Coeff-Com: -0.848D-03 0.106D-02 0.432D-02 0.284D-01 0.113D+00 0.854D+00
 Coeff:     -0.848D-03 0.106D-02 0.432D-02 0.284D-01 0.113D+00 0.854D+00
 Gap=     0.059 Goal=   None    Shift=    0.000
 Gap=     0.059 Goal=   None    Shift=    0.000
 RMSDP=2.68D-06 MaxDP=1.22D-04 DE=-2.92D-06 OVMax= 2.17D-04

 Cycle   7  Pass 1  IDiag  1:
 RMSU=  1.90D-06    CP:  9.84D-01  3.00D+00  1.10D+00  7.06D-01  4.93D-01
                    CP:  1.07D+00
 E= -1136.08690216698     Delta-E=       -0.000000032853 Rises=F Damp=F
 DIIS: error= 2.20D-06 at cycle   7 NSaved=   7.
 NSaved= 7 IEnMin= 7 EnMin= -1136.08690216698     IErMin= 7 ErrMin= 2.20D-06
 ErrMax= 2.20D-06  0.00D+00 EMaxC= 1.00D-01 BMatC= 2.94D-09 BMatP= 6.25D-08
 IDIUse=1 WtCom= 1.00D+00 WtEn= 0.00D+00
 Coeff-Com: -0.496D-03 0.641D-03-0.265D-02-0.486D-02 0.150D-01 0.266D+00
 Coeff-Com:  0.726D+00
 Coeff:     -0.496D-03 0.641D-03-0.265D-02-0.486D-02 0.150D-01 0.266D+00
 Coeff:      0.726D+00
 Gap=     0.059 Goal=   None    Shift=    0.000
 Gap=     0.059 Goal=   None    Shift=    0.000
 RMSDP=7.45D-07 MaxDP=3.45D-05 DE=-3.29D-08 OVMax= 4.68D-05

 Cycle   8  Pass 1  IDiag  1:
 RMSU=  3.59D-07    CP:  9.84D-01  3.00D+00  1.10D+00  7.05D-01  4.96D-01
                    CP:  1.13D+00  9.23D-01
 E= -1136.08690216896     Delta-E=       -0.000000001975 Rises=F Damp=F
 DIIS: error= 6.48D-07 at cycle   8 NSaved=   8.
 NSaved= 8 IEnMin= 8 EnMin= -1136.08690216896     IErMin= 8 ErrMin= 6.48D-07
 ErrMax= 6.48D-07  0.00D+00 EMaxC= 1.00D-01 BMatC= 1.63D-10 BMatP= 2.94D-09
 IDIUse=1 WtCom= 1.00D+00 WtEn= 0.00D+00
 Coeff-Com:  0.277D-04-0.362D-04-0.579D-03-0.343D-02-0.719D-02-0.113D-01
 Coeff-Com:  0.121D+00 0.901D+00
 Coeff:      0.277D-04-0.362D-04-0.579D-03-0.343D-02-0.719D-02-0.113D-01
 Coeff:      0.121D+00 0.901D+00
 Gap=     0.059 Goal=   None    Shift=    0.000
 Gap=     0.059 Goal=   None    Shift=    0.000
 RMSDP=3.17D-07 MaxDP=1.16D-05 DE=-1.97D-09 OVMax= 1.14D-05

 Cycle   9  Pass 1  IDiag  1:
 RMSU=  9.83D-08    CP:  9.84D-01  3.00D+00  1.10D+00  7.04D-01  4.95D-01
                    CP:  1.15D+00  1.01D+00  1.13D+00
 E= -1136.08690216906     Delta-E=       -0.000000000102 Rises=F Damp=F
 DIIS: error= 1.39D-07 at cycle   9 NSaved=   9.
 NSaved= 9 IEnMin= 9 EnMin= -1136.08690216906     IErMin= 9 ErrMin= 1.39D-07
 ErrMax= 1.39D-07  0.00D+00 EMaxC= 1.00D-01 BMatC= 2.63D-11 BMatP= 1.63D-10
 IDIUse=1 WtCom= 1.00D+00 WtEn= 0.00D+00
 Coeff-Com:  0.437D-04-0.567D-04-0.118D-03-0.129D-02-0.439D-02-0.213D-01
 Coeff-Com:  0.103D-01 0.386D+00 0.631D+00
 Coeff:      0.437D-04-0.567D-04-0.118D-03-0.129D-02-0.439D-02-0.213D-01
 Coeff:      0.103D-01 0.386D+00 0.631D+00
 Gap=     0.059 Goal=   None    Shift=    0.000
 Gap=     0.059 Goal=   None    Shift=    0.000
 RMSDP=7.42D-08 MaxDP=3.90D-06 DE=-1.02D-10 OVMax= 5.07D-06

 Cycle  10  Pass 1  IDiag  1:
 RMSU=  3.66D-08    CP:  9.84D-01  3.00D+00  1.10D+00  7.04D-01  4.94D-01
                    CP:  1.15D+00  1.02D+00  1.21D+00  1.00D+00
 E= -1136.08690216908     Delta-E=       -0.000000000016 Rises=F Damp=F
 DIIS: error= 1.00D-07 at cycle  10 NSaved=  10.
 NSaved=10 IEnMin=10 EnMin= -1136.08690216908     IErMin=10 ErrMin= 1.00D-07
 ErrMax= 1.00D-07  0.00D+00 EMaxC= 1.00D-01 BMatC= 1.25D-12 BMatP= 2.63D-11
 IDIUse=1 WtCom= 1.00D+00 WtEn= 0.00D+00
 Coeff-Com: -0.402D-05 0.534D-05 0.359D-04 0.269D-03 0.556D-03 0.813D-03
 Coeff-Com: -0.102D-01-0.659D-01 0.935D-03 0.107D+01
 Coeff:     -0.402D-05 0.534D-05 0.359D-04 0.269D-03 0.556D-03 0.813D-03
 Coeff:     -0.102D-01-0.659D-01 0.935D-03 0.107D+01
 Gap=     0.059 Goal=   None    Shift=    0.000
 Gap=     0.059 Goal=   None    Shift=    0.000
 RMSDP=3.88D-08 MaxDP=3.73D-06 DE=-1.61D-11 OVMax= 5.71D-06

 Cycle  11  Pass 1  IDiag  1:
 RMSU=  1.67D-08    CP:  9.84D-01  3.00D+00  1.10D+00  7.04D-01  4.94D-01
                    CP:  1.16D+00  1.03D+00  1.24D+00  1.20D+00  1.52D+00
 E= -1136.08690216908     Delta-E=       -0.000000000003 Rises=F Damp=F
 DIIS: error= 6.01D-08 at cycle  11 NSaved=  11.
 NSaved=11 IEnMin=11 EnMin= -1136.08690216908     IErMin=11 ErrMin= 6.01D-08
 ErrMax= 6.01D-08  0.00D+00 EMaxC= 1.00D-01 BMatC= 4.45D-13 BMatP= 1.25D-12
 IDIUse=1 WtCom= 1.00D+00 WtEn= 0.00D+00
 Coeff-Com: -0.108D-04 0.140D-04 0.362D-04 0.343D-03 0.111D-02 0.509D-02
 Coeff-Com: -0.301D-02-0.981D-01-0.140D+00 0.187D+00 0.105D+01
 Coeff:     -0.108D-04 0.140D-04 0.362D-04 0.343D-03 0.111D-02 0.509D-02
 Coeff:     -0.301D-02-0.981D-01-0.140D+00 0.187D+00 0.105D+01
 Gap=     0.059 Goal=   None    Shift=    0.000
 Gap=     0.059 Goal=   None    Shift=    0.000
 RMSDP=2.56D-08 MaxDP=2.91D-06 DE=-2.50D-12 OVMax= 4.36D-06

 Cycle  12  Pass 1  IDiag  1:
 RMSU=  4.08D-09    CP:  9.84D-01  3.00D+00  1.10D+00  7.04D-01  4.94D-01
                    CP:  1.16D+00  1.03D+00  1.26D+00  1.31D+00  1.94D+00
                    CP:  1.91D+00
 E= -1136.08690216909     Delta-E=       -0.000000000015 Rises=F Damp=F
 DIIS: error= 2.95D-08 at cycle  12 NSaved=  12.
 NSaved=12 IEnMin=12 EnMin= -1136.08690216909     IErMin=12 ErrMin= 2.95D-08
 ErrMax= 2.95D-08  0.00D+00 EMaxC= 1.00D-01 BMatC= 1.03D-13 BMatP= 4.45D-13
 IDIUse=1 WtCom= 1.00D+00 WtEn= 0.00D+00
 Coeff-Com:  0.127D-05-0.172D-05-0.117D-04-0.746D-04-0.136D-03-0.815D-05
 Coeff-Com:  0.327D-02 0.168D-01-0.132D-01-0.418D+00 0.119D+00 0.129D+01
 Coeff:      0.127D-05-0.172D-05-0.117D-04-0.746D-04-0.136D-03-0.815D-05
 Coeff:      0.327D-02 0.168D-01-0.132D-01-0.418D+00 0.119D+00 0.129D+01
 Gap=     0.059 Goal=   None    Shift=    0.000
 Gap=     0.059 Goal=   None    Shift=    0.000
 RMSDP=2.11D-08 MaxDP=2.37D-06 DE=-1.52D-11 OVMax= 3.62D-06

 Cycle  13  Pass 1  IDiag  1:
 RMSU=  1.37D-09    CP:  9.84D-01  3.00D+00  1.10D+00  7.04D-01  4.94D-01
                    CP:  1.16D+00  1.03D+00  1.27D+00  1.39D+00  2.25D+00
                    CP:  2.79D+00  1.92D+00
 E= -1136.08690216908     Delta-E=        0.000000000008 Rises=F Damp=F
 DIIS: error= 4.63D-09 at cycle  13 NSaved=  13.
 NSaved=13 IEnMin=12 EnMin= -1136.08690216909     IErMin=13 ErrMin= 4.63D-09
 ErrMax= 4.63D-09  0.00D+00 EMaxC= 1.00D-01 BMatC= 3.39D-15 BMatP= 1.03D-13
 IDIUse=1 WtCom= 1.00D+00 WtEn= 0.00D+00
 Coeff-Com:  0.675D-06-0.881D-06-0.283D-05-0.275D-04-0.672D-04-0.248D-03
 Coeff-Com:  0.426D-03 0.655D-02 0.446D-02-0.423D-01-0.452D-01 0.920D-01
 Coeff-Com:  0.984D+00
 Coeff:      0.675D-06-0.881D-06-0.283D-05-0.275D-04-0.672D-04-0.248D-03
 Coeff:      0.426D-03 0.655D-02 0.446D-02-0.423D-01-0.452D-01 0.920D-01
 Coeff:      0.984D+00
 Gap=     0.059 Goal=   None    Shift=    0.000
 Gap=     0.059 Goal=   None    Shift=    0.000
 RMSDP=3.05D-09 MaxDP=2.86D-07 DE= 7.96D-12 OVMax= 4.12D-07

 SCF Done:  E(UB3LYP) =  -1136.08690217     A.U. after   13 cycles
            NFock= 13  Conv=0.30D-08     -V/T= 2.0028
 <Sx>= 0.0000 <Sy>= 0.0000 <Sz>= 0.5000 <S**2>= 0.7500 S= 0.5000
 <L.S>= 0.000000000000E+00
 KE= 1.132940743239D+03 PE=-2.997613996988D+03 EE= 5.942797721348D+02
 Annihilation of the first spin contaminant:
 S**2 before annihilation     0.7500,   after     0.7500
 Leave Link  502 at Thu Nov 23 12:38:34 2023, MaxMem=   104857600 cpu:             343.4 elap:             426.6
 (Enter /home/sekinelabo/g16/l601.exe)
 Copying SCF densities to generalized density rwf, IOpCl= 1 IROHF=0.

 **********************************************************************

            Population analysis using the SCF Density.

 **********************************************************************

 Orbital symmetries:
 Alpha Orbitals:
       Occupied  (A) (A) (A) (A) (A) (A) (A) (A) (A) (A) (A) (A)
                 (A) (A) (A) (A) (A) (A) (A) (A) (A) (A) (A) (A)
                 (A) (A) (A) (A) (A) (A) (A) (A) (A) (A) (A) (A)
                 (A) (A) (A)
       Virtual   (A) (A) (A) (A) (A) (A) (A) (A) (A) (A) (A) (A)
                 (A) (A) (A) (A) (A) (A) (A) (A) (A) (A) (A) (A)
                 (A) (A) (A) (A) (A) (A) (A) (A) (A) (A) (A) (A)
                 (A) (A) (A) (A) (A) (A) (A) (A) (A) (A) (A) (A)
                 (A) (A) (A) (A) (A) (A) (A) (A) (A) (A) (A) (A)
                 (A) (A) (A) (A) (A) (A) (A) (A) (A) (A) (A) (A)
                 (A) (A) (A) (A) (A) (A) (A) (A) (A) (A) (A) (A)
                 (A) (A) (A) (A) (A) (A) (A) (A) (A) (A) (A) (A)
                 (A) (A) (A) (A) (A) (A) (A) (A) (A) (A) (A) (A)
                 (A) (A) (A) (A) (A) (A) (A) (A) (A) (A) (A) (A)
                 (A) (A) (A) (A) (A) (A) (A) (A) (A) (A) (A) (A)
                 (A) (A) (A) (A) (A) (A) (A) (A) (A) (A) (A) (A)
                 (A) (A) (A) (A) (A) (A) (A) (A) (A) (A) (A) (A)
                 (A) (A) (A) (A) (A) (A) (A) (A) (A) (A) (A) (A)
                 (A) (A) (A)
 Beta  Orbitals:
       Occupied  (A) (A) (A) (A) (A) (A) (A) (A) (A) (A) (A) (A)
                 (A) (A) (A) (A) (A) (A) (A) (A) (A) (A) (A) (A)
                 (A) (A) (A) (A) (A) (A) (A) (A) (A) (A) (A) (A)
                 (A) (A)
       Virtual   (A) (A) (A) (A) (A) (A) (A) (A) (A) (A) (A) (A)
                 (A) (A) (A) (A) (A) (A) (A) (A) (A) (A) (A) (A)
                 (A) (A) (A) (A) (A) (A) (A) (A) (A) (A) (A) (A)
                 (A) (A) (A) (A) (A) (A) (A) (A) (A) (A) (A) (A)
                 (A) (A) (A) (A) (A) (A) (A) (A) (A) (A) (A) (A)
                 (A) (A) (A) (A) (A) (A) (A) (A) (A) (A) (A) (A)
                 (A) (A) (A) (A) (A) (A) (A) (A) (A) (A) (A) (A)
                 (A) (A) (A) (A) (A) (A) (A) (A) (A) (A) (A) (A)
                 (A) (A) (A) (A) (A) (A) (A) (A) (A) (A) (A) (A)
                 (A) (A) (A) (A) (A) (A) (A) (A) (A) (A) (A) (A)
                 (A) (A) (A) (A) (A) (A) (A) (A) (A) (A) (A) (A)
                 (A) (A) (A) (A) (A) (A) (A) (A) (A) (A) (A) (A)
                 (A) (A) (A) (A) (A) (A) (A) (A) (A) (A) (A) (A)
                 (A) (A) (A) (A) (A) (A) (A) (A) (A) (A) (A) (A)
                 (A) (A) (A) (A)
 The electronic state is 2-A.
 Alpha  occ. eigenvalues --  -38.45766 -38.44704 -38.44277 -38.44187 -38.44186
 Alpha  occ. eigenvalues --  -38.43910 -38.43787  -2.21552  -2.20513  -2.20099
 Alpha  occ. eigenvalues --   -2.20035  -2.19996  -2.19732  -2.19609  -1.15164
 Alpha  occ. eigenvalues --   -1.15163  -1.15163  -1.14275  -1.14155  -1.14151
 Alpha  occ. eigenvalues --   -1.13974  -1.13743  -1.13736  -1.13730  -1.13677
 Alpha  occ. eigenvalues --   -1.13677  -1.13616  -1.13615  -1.13582  -1.13500
 Alpha  occ. eigenvalues --   -1.13372  -1.13371  -1.13252  -1.13240  -1.13171
 Alpha  occ. eigenvalues --   -0.14365  -0.13349  -0.12793  -0.12403
 Alpha virt. eigenvalues --   -0.06528  -0.05221  -0.04240  -0.03048  -0.02867
 Alpha virt. eigenvalues --   -0.02569  -0.02487  -0.02101  -0.02067  -0.01901
 Alpha virt. eigenvalues --   -0.01700  -0.01175  -0.00967  -0.00764   0.00240
 Alpha virt. eigenvalues --    0.00312   0.00343   0.00605   0.00737   0.00750
 Alpha virt. eigenvalues --    0.00775   0.00876   0.00961   0.01082   0.01096
 Alpha virt. eigenvalues --    0.01221   0.01251   0.01432   0.01537   0.01574
 Alpha virt. eigenvalues --    0.01606   0.01643   0.01742   0.01868   0.01953
 Alpha virt. eigenvalues --    0.02087   0.02276   0.02316   0.02341   0.02656
 Alpha virt. eigenvalues --    0.02674   0.02734   0.02811   0.02988   0.03040
 Alpha virt. eigenvalues --    0.03160   0.03218   0.03555   0.04469   0.04624
 Alpha virt. eigenvalues --    0.04632   0.05721   0.06955   0.07107   0.07157
 Alpha virt. eigenvalues --    0.07230   0.07280   0.07314   0.07509   0.07591
 Alpha virt. eigenvalues --    0.07674   0.07810   0.07892   0.08348   0.08433
 Alpha virt. eigenvalues --    0.08873   0.09141   0.09505   0.09541   0.09961
 Alpha virt. eigenvalues --    0.10384   0.10452   0.10748   0.11072   0.11312
 Alpha virt. eigenvalues --    0.11981   0.13086   0.15461   0.15919   0.16764
 Alpha virt. eigenvalues --    0.28676   0.29204   0.29891   0.29914   0.30007
 Alpha virt. eigenvalues --    0.30998   0.31943   0.32153   0.32188   0.32527
 Alpha virt. eigenvalues --    0.32702   0.32729   0.33232   0.33236   0.33236
 Alpha virt. eigenvalues --    0.33242   0.33254   0.33401   0.33696   0.36040
 Alpha virt. eigenvalues --    0.37767   0.38280   0.38913   0.38918   0.39910
 Alpha virt. eigenvalues --    0.41374   0.41866   0.41977   0.42000   0.42025
 Alpha virt. eigenvalues --    0.42304   0.42619   0.43023   0.43059   0.43112
 Alpha virt. eigenvalues --    0.43221   0.43607   0.44065   0.44123   0.44408
 Alpha virt. eigenvalues --    0.44416   0.45246   0.46368   0.47493   0.48046
 Alpha virt. eigenvalues --    0.48751   0.49787   0.50291   0.50910   0.51898
 Alpha virt. eigenvalues --    0.51936   0.51938   0.54899   0.75925   0.77673
 Alpha virt. eigenvalues --    0.79975   1.99237   2.03902   2.04682   2.07725
 Alpha virt. eigenvalues --    2.10972   2.11669   2.14316   4.41499   4.42483
 Alpha virt. eigenvalues --    4.42707   4.42809   4.42912   4.43087   4.43164
 Alpha virt. eigenvalues --    4.43216   4.43348   4.43752   4.43879   4.44312
 Alpha virt. eigenvalues --    4.46230   4.46526   4.46751   4.46888   4.47151
 Alpha virt. eigenvalues --    4.49274   4.69389   4.71527   4.73611  96.18365
 Alpha virt. eigenvalues --   96.23300  96.24241  96.28088  96.33864  96.34386
 Alpha virt. eigenvalues --   96.37486
  Beta  occ. eigenvalues --  -38.45580 -38.44704 -38.44277 -38.44187 -38.44185
  Beta  occ. eigenvalues --  -38.43910 -38.43787  -2.21205  -2.20513  -2.20099
  Beta  occ. eigenvalues --   -2.20035  -2.19996  -2.19732  -2.19609  -1.14929
  Beta  occ. eigenvalues --   -1.14929  -1.14929  -1.14275  -1.14155  -1.14151
  Beta  occ. eigenvalues --   -1.13974  -1.13743  -1.13736  -1.13730  -1.13677
  Beta  occ. eigenvalues --   -1.13677  -1.13615  -1.13615  -1.13582  -1.13500
  Beta  occ. eigenvalues --   -1.13372  -1.13371  -1.13252  -1.13240  -1.13171
  Beta  occ. eigenvalues --   -0.14365  -0.13347  -0.12403
  Beta virt. eigenvalues --   -0.06528  -0.06264  -0.05225  -0.04240  -0.03048
  Beta virt. eigenvalues --   -0.02867  -0.02495  -0.02483  -0.01700  -0.01175
  Beta virt. eigenvalues --   -0.00967  -0.00921  -0.00127  -0.00095   0.00052
  Beta virt. eigenvalues --    0.00240   0.00343   0.00605   0.00700   0.00750
  Beta virt. eigenvalues --    0.00776   0.00850   0.00961   0.00966   0.01096
  Beta virt. eigenvalues --    0.01217   0.01251   0.01324   0.01432   0.01606
  Beta virt. eigenvalues --    0.01643   0.01899   0.01953   0.02087   0.02276
  Beta virt. eigenvalues --    0.02289   0.02316   0.02326   0.02345   0.02500
  Beta virt. eigenvalues --    0.02674   0.02734   0.02767   0.02811   0.02982
  Beta virt. eigenvalues --    0.03047   0.03160   0.03218   0.03555   0.04469
  Beta virt. eigenvalues --    0.04618   0.04624   0.05721   0.06955   0.07212
  Beta virt. eigenvalues --    0.07238   0.07280   0.07314   0.07365   0.07509
  Beta virt. eigenvalues --    0.07810   0.08348   0.08629   0.08873   0.09040
  Beta virt. eigenvalues --    0.09068   0.09141   0.09179   0.09541   0.09831
  Beta virt. eigenvalues --    0.09966   0.10384   0.10737   0.10748   0.11304
  Beta virt. eigenvalues --    0.11312   0.11981   0.13086   0.15461   0.15907
  Beta virt. eigenvalues --    0.16764   0.28676   0.29204   0.29891   0.29914
  Beta virt. eigenvalues --    0.30007   0.30998   0.31943   0.32154   0.32191
  Beta virt. eigenvalues --    0.32527   0.32702   0.32762   0.33236   0.33696
  Beta virt. eigenvalues --    0.35332   0.35335   0.35344   0.35355   0.35444
  Beta virt. eigenvalues --    0.36040   0.37767   0.38280   0.38918   0.38920
  Beta virt. eigenvalues --    0.39910   0.41374   0.41878   0.42000   0.42619
  Beta virt. eigenvalues --    0.42968   0.43023   0.43112   0.43136   0.43485
  Beta virt. eigenvalues --    0.43497   0.43591   0.43607   0.44065   0.44131
  Beta virt. eigenvalues --    0.44416   0.44540   0.45246   0.46368   0.47493
  Beta virt. eigenvalues --    0.48044   0.48751   0.49787   0.50291   0.50910
  Beta virt. eigenvalues --    0.51898   0.51936   0.51938   0.54899   0.75925
  Beta virt. eigenvalues --    0.77673   0.79975   2.00107   2.03902   2.04686
  Beta virt. eigenvalues --    2.07725   2.10971   2.11669   2.14316   4.41499
  Beta virt. eigenvalues --    4.42502   4.42707   4.43037   4.43164   4.43183
  Beta virt. eigenvalues --    4.43304   4.43310   4.43466   4.43752   4.43879
  Beta virt. eigenvalues --    4.44312   4.46230   4.46526   4.46751   4.46890
  Beta virt. eigenvalues --    4.47151   4.49274   4.69389   4.71527   4.73611
  Beta virt. eigenvalues --   96.18633  96.23300  96.24242  96.28088  96.33864
  Beta virt. eigenvalues --   96.34386  96.37486
          Condensed to atoms (all electrons):
               1          2          3          4          5          6
     1  Na  11.006803   0.000000   0.000000   0.000000   0.000000   0.001742
     2  Na   0.000000  10.673900   0.416156  -0.071150  -0.065340   0.000000
     3  Na   0.000000   0.416156  10.742667  -0.022921  -0.122410   0.000000
     4  Na   0.000000  -0.071150  -0.022921  11.184823   0.270150   0.000000
     5  Na   0.000000  -0.065340  -0.122410   0.270150  10.589638   0.000000
     6  Na   0.001742   0.000000   0.000000   0.000000   0.000000  10.720407
     7  Na  -0.009123   0.000000   0.000000   0.000000   0.000000   0.353636
               7
     1  Na  -0.009123
     2  Na   0.000000
     3  Na   0.000000
     4  Na   0.000000
     5  Na   0.000000
     6  Na   0.353636
     7  Na  10.580280
          Atomic-Atomic Spin Densities.
               1          2          3          4          5          6
     1  Na   1.005965   0.000000   0.000000   0.000000   0.000000   0.003919
     2  Na   0.000000   0.000000  -0.000000  -0.000000  -0.000000   0.000000
     3  Na   0.000000  -0.000000  -0.000000   0.000000  -0.000000   0.000000
     4  Na   0.000000  -0.000000   0.000000  -0.000000   0.000000   0.000000
     5  Na   0.000000  -0.000000  -0.000000   0.000000   0.000000   0.000000
     6  Na   0.003919   0.000000   0.000000   0.000000   0.000000   0.000197
     7  Na  -0.007154   0.000000   0.000000   0.000000   0.000000  -0.006291
               7
     1  Na  -0.007154
     2  Na   0.000000
     3  Na   0.000000
     4  Na   0.000000
     5  Na   0.000000
     6  Na  -0.006291
     7  Na   0.012890
 Mulliken charges and spin densities:
               1          2
     1  Na   0.000578   1.002730
     2  Na   0.046433  -0.000000
     3  Na  -0.013492   0.000000
     4  Na  -0.360902  -0.000000
     5  Na   0.327962   0.000000
     6  Na  -0.075785  -0.002175
     7  Na   0.075208  -0.000555
 Sum of Mulliken charges =  -0.00000   1.00000
 Mulliken charges and spin densities with hydrogens summed into heavy atoms:
               1          2
     1  Na   0.000578   1.002730
     2  Na   0.046433  -0.000000
     3  Na  -0.013492   0.000000
     4  Na  -0.360902  -0.000000
     5  Na   0.327962   0.000000
     6  Na  -0.075785  -0.002175
     7  Na   0.075208  -0.000555
 Electronic spatial extent (au):  <R**2>=         622773.4966
 Charge=             -0.0000 electrons
 Dipole moment (field-independent basis, Debye):
    X=             -0.7746    Y=              0.2981    Z=              0.5075  Tot=              0.9729
 Quadrupole moment (field-independent basis, Debye-Ang):
   XX=             -7.5984   YY=            -67.8760   ZZ=            -69.8228
   XY=             -5.4859   XZ=            -27.6909   YZ=             -3.7315
 Traceless Quadrupole moment (field-independent basis, Debye-Ang):
   XX=             40.8340   YY=            -19.4436   ZZ=            -21.3904
   XY=             -5.4859   XZ=            -27.6909   YZ=             -3.7315
 Octapole moment (field-independent basis, Debye-Ang**2):
  XXX=          -4296.5275  YYY=            -80.5149  ZZZ=             18.3970  XYY=           -246.8142
  XXY=            525.9563  XXZ=            871.5509  XZZ=            -54.1127  YZZ=             -2.9337
  YYZ=             12.2256  XYZ=           -112.2999
 Hexadecapole moment (field-independent basis, Debye-Ang**3):
 XXXX=        -711741.8238 YYYY=          -6004.2660 ZZZZ=           -648.7133 XXXY=          20973.5178
 XXXZ=         -91969.1869 YYYX=            762.1283 YYYZ=            -78.3597 ZZZX=           -404.5639
 ZZZY=             -7.1334 XXYY=        -158630.9067 XXZZ=        -156876.1578 YYZZ=          -1114.0633
 XXYZ=          -7184.9177 YYXZ=           1402.3245 ZZXY=          -1340.5447
 N-N= 1.343065794446D+02 E-N=-2.997613996883D+03  KE= 1.132940743239D+03
                          Isotropic Fermi Contact Couplings
        Atom                 a.u.       MegaHertz       Gauss      10(-4) cm-1
     1  Na(23)             0.79348     938.70543     334.95344     313.11843
     2  Na(23)            -0.00000      -0.00000      -0.00000      -0.00000
     3  Na(23)            -0.00000      -0.00000      -0.00000      -0.00000
     4  Na(23)            -0.00000      -0.00000      -0.00000      -0.00000
     5  Na(23)            -0.00000      -0.00000      -0.00000      -0.00000
     6  Na(23)            -0.00013      -0.15649      -0.05584      -0.05220
     7  Na(23)             0.00084       0.98961       0.35312       0.33010
 --------------------------------------------------------
       Center         ----  Spin Dipole Couplings  ----
                      3XX-RR        3YY-RR        3ZZ-RR
 --------------------------------------------------------
     1   Atom       -0.000005      0.000007     -0.000003
     2   Atom        0.000000     -0.000000     -0.000000
     3   Atom        0.000000     -0.000000     -0.000000
     4   Atom        0.000000     -0.000000     -0.000000
     5   Atom        0.000000     -0.000000     -0.000000
     6   Atom       -0.000210      0.000423     -0.000213
     7   Atom       -0.000107      0.000212     -0.000105
 --------------------------------------------------------
                        XY            XZ            YZ
 --------------------------------------------------------
     1   Atom        0.000011      0.000000     -0.000010
     2   Atom        0.000000     -0.000000     -0.000000
     3   Atom        0.000000     -0.000000     -0.000000
     4   Atom        0.000000      0.000000      0.000000
     5   Atom        0.000000      0.000000      0.000000
     6   Atom        0.000017     -0.000032     -0.000072
     7   Atom        0.000029     -0.000016     -0.000053
 --------------------------------------------------------


 ---------------------------------------------------------------------------------
              Anisotropic Spin Dipole Couplings in Principal Axis System
 ---------------------------------------------------------------------------------

       Atom             a.u.   MegaHertz   Gauss  10(-4) cm-1        Axes

              Baa    -0.0000    -0.002    -0.001    -0.001  0.6617 -0.5558 -0.5032
     1 Na(23) Bbb    -0.0000    -0.000    -0.000    -0.000  0.6392  0.0673  0.7661
              Bcc     0.0000     0.002     0.001     0.001  0.3919  0.8286 -0.3998
 
              Baa    -0.0000    -0.000    -0.000    -0.000  0.0148  0.2109  0.9774
     2 Na(23) Bbb    -0.0000    -0.000    -0.000    -0.000 -0.0467  0.9766 -0.2100
              Bcc     0.0000     0.000     0.000     0.000  0.9988  0.0426 -0.0243
 
              Baa    -0.0000    -0.000    -0.000    -0.000 -0.0041  0.2136  0.9769
     3 Na(23) Bbb    -0.0000    -0.000    -0.000    -0.000 -0.0409  0.9761 -0.2135
              Bcc     0.0000     0.000     0.000     0.000  0.9992  0.0408 -0.0048
 
              Baa    -0.0000    -0.000    -0.000    -0.000 -0.0191  0.2152  0.9764
     4 Na(23) Bbb    -0.0000    -0.000    -0.000    -0.000 -0.0786  0.9732 -0.2161
              Bcc     0.0000     0.000     0.000     0.000  0.9967  0.0809  0.0016
 
              Baa    -0.0000    -0.000    -0.000    -0.000 -0.0250  0.2146  0.9764
     5 Na(23) Bbb    -0.0000    -0.000    -0.000    -0.000 -0.1047  0.9707 -0.2161
              Bcc     0.0000     0.000     0.000     0.000  0.9942  0.1077  0.0018
 
              Baa    -0.0002    -0.035    -0.012    -0.012  0.6400  0.0664  0.7655
     6 Na(23) Bbb    -0.0002    -0.026    -0.009    -0.009  0.7677 -0.0968 -0.6334
              Bcc     0.0004     0.061     0.022     0.020  0.0320  0.9931 -0.1129
 
              Baa    -0.0001    -0.017    -0.006    -0.006  0.6403  0.0664  0.7652
     7 Na(23) Bbb    -0.0001    -0.014    -0.005    -0.005  0.7623 -0.1766 -0.6226
              Bcc     0.0002     0.032     0.011     0.011  0.0938  0.9820 -0.1637
 

 ---------------------------------------------------------------------------------

 No NMR shielding tensors so no spin-rotation constants.
 Leave Link  601 at Thu Nov 23 12:38:56 2023, MaxMem=   104857600 cpu:              17.8 elap:              22.6
 (Enter /home/sekinelabo/g16/l701.exe)
 ... and contract with generalized density number  0.
 Compute integral first derivatives.
 Leave Link  701 at Thu Nov 23 12:39:06 2023, MaxMem=   104857600 cpu:               7.4 elap:               9.4
 (Enter /home/sekinelabo/g16/l702.exe)
 L702 exits ... SP integral derivatives will be done elsewhere.
 Leave Link  702 at Thu Nov 23 12:39:07 2023, MaxMem=   104857600 cpu:               0.6 elap:               0.9
 (Enter /home/sekinelabo/g16/l703.exe)
 Integral derivatives from FoFJK, PRISM(SPDF).
 Compute integral first derivatives, UseDBF=F ICtDFT=           0.
 Calling FoFJK, ICntrl=      2127 FMM=F ISym2X=0 I1Cent= 0 IOpClX= 1 NMat=1 NMatS=1 NMatT=0.
 FoFJK:  IHMeth= 1 ICntrl=    2127 DoSepK=F KAlg= 0 I1Cent=           0 FoldK=F
 IRaf=         0 NMat=       1 IRICut=       1 DoRegI=T DoRafI=F ISym2E= 0 IDoP0=0 IntGTp=1.
 FoFCou: FMM=F IPFlag=           0 FMFlag=      100000 FMFlg1=         800
         NFxFlg=           0 DoJE=F BraDBF=F KetDBF=F FulRan=T
         wScrn=  0.000000 ICntrl=      2127 IOpCl=  1 I1Cent=           0 NGrid=           0
         NMat0=    1 NMatS0=      1 NMatT0=    0 NMatD0=    1 NMtDS0=    0 NMtDT0=    0
 Symmetry not used in FoFCou.
 Leave Link  703 at Thu Nov 23 12:39:36 2023, MaxMem=   104857600 cpu:              23.0 elap:              28.9
 (Enter /home/sekinelabo/g16/l716.exe)
 Dipole        =-3.04753804D-01 1.17291415D-01 1.99682285D-01
 ***** Axes restored to original set *****
 -------------------------------------------------------------------
 Center     Atomic                   Forces (Hartrees/Bohr)
 Number     Number              X              Y              Z
 -------------------------------------------------------------------
      1       11          -0.000004136    0.000001034    0.000000312
      2       11           0.000365518    0.002804103   -0.002993616
      3       11          -0.000695951   -0.002944711    0.003386004
      4       11           0.005431550   -0.000774951    0.001326697
      5       11          -0.005101118    0.000915558   -0.001719085
      6       11           0.002267061   -0.004727498    0.004686903
      7       11          -0.002262925    0.004726464   -0.004687215
 -------------------------------------------------------------------
 Cartesian Forces:  Max     0.005431550 RMS     0.003071703
 Z-matrix is all fixed cartesians, so copy forces.
 Force constants in Cartesian coordinates: 
                1             2             3             4             5 
      1  0.100000D+01
      2  0.000000D+00  0.100000D+01
      3  0.000000D+00  0.000000D+00  0.100000D+01
      4  0.000000D+00  0.000000D+00  0.000000D+00  0.785215D-02
      5  0.000000D+00  0.000000D+00  0.000000D+00  0.198022D-03  0.199974D-01
      6  0.000000D+00  0.000000D+00  0.000000D+00 -0.387889D-02 -0.214865D-01
      7  0.000000D+00  0.000000D+00  0.000000D+00 -0.900087D-02  0.133166D-03
      8  0.000000D+00  0.000000D+00  0.000000D+00  0.378068D-02 -0.212378D-01
      9  0.000000D+00  0.000000D+00  0.000000D+00  0.114863D-03  0.225906D-01
     10  0.000000D+00  0.000000D+00  0.000000D+00  0.115399D-02 -0.319185D-03
     11  0.000000D+00  0.000000D+00  0.000000D+00 -0.394378D-02  0.131984D-02
     12  0.000000D+00  0.000000D+00  0.000000D+00  0.377058D-02 -0.108912D-02
     13  0.000000D+00  0.000000D+00  0.000000D+00 -0.527335D-05 -0.120032D-04
     14  0.000000D+00  0.000000D+00  0.000000D+00 -0.349240D-04 -0.794943D-04
     15  0.000000D+00  0.000000D+00  0.000000D+00 -0.654834D-05 -0.149054D-04
     16  0.000000D+00  0.000000D+00  0.000000D+00  0.000000D+00  0.000000D+00
     17  0.000000D+00  0.000000D+00  0.000000D+00  0.000000D+00  0.000000D+00
     18  0.000000D+00  0.000000D+00  0.000000D+00  0.000000D+00  0.000000D+00
     19  0.000000D+00  0.000000D+00  0.000000D+00  0.000000D+00  0.000000D+00
     20  0.000000D+00  0.000000D+00  0.000000D+00  0.000000D+00  0.000000D+00
     21  0.000000D+00  0.000000D+00  0.000000D+00  0.000000D+00  0.000000D+00
                6             7             8             9            10 
      6  0.249993D-01
      7  0.404355D-02  0.189977D-01
      8  0.208340D-01 -0.566192D-02  0.249140D-01
      9 -0.244432D-01 -0.159883D-02 -0.245125D-01  0.304866D-01
     10 -0.153484D-03 -0.918783D-02  0.131635D-02  0.368345D-02  0.467432D-01
     11  0.726549D-03  0.569467D-02 -0.399437D-02  0.241387D-02 -0.954453D-02
     12 -0.542255D-03 -0.428518D-02  0.485284D-02 -0.110249D-01  0.111209D-01
     13 -0.111727D-04 -0.808989D-03  0.564886D-03 -0.219949D-02 -0.387093D-01
     14 -0.739936D-04 -0.165914D-03  0.318115D-03 -0.491896D-03  0.854736D-02
     15 -0.138740D-04  0.184046D-02 -0.117429D-02  0.498151D-02 -0.146509D-01
     16  0.000000D+00  0.000000D+00  0.000000D+00  0.000000D+00  0.000000D+00
     17  0.000000D+00  0.000000D+00  0.000000D+00  0.000000D+00  0.000000D+00
     18  0.000000D+00  0.000000D+00  0.000000D+00  0.000000D+00  0.000000D+00
     19  0.000000D+00  0.000000D+00  0.000000D+00  0.000000D+00  0.000000D+00
     20  0.000000D+00  0.000000D+00  0.000000D+00  0.000000D+00  0.000000D+00
     21  0.000000D+00  0.000000D+00  0.000000D+00  0.000000D+00  0.000000D+00
               11            12            13            14            15 
     11  0.517667D-02
     12 -0.881293D-02  0.302866D-01
     13  0.779364D-02 -0.106063D-01  0.395236D-01
     14 -0.250214D-02  0.504921D-02 -0.834652D-02  0.226352D-02
     15  0.567251D-02 -0.187195D-01  0.128170D-01 -0.448332D-02  0.137519D-01
     16  0.000000D+00  0.000000D+00  0.000000D+00  0.000000D+00  0.000000D+00
     17  0.000000D+00  0.000000D+00  0.000000D+00  0.000000D+00  0.000000D+00
     18  0.000000D+00  0.000000D+00  0.000000D+00  0.000000D+00  0.000000D+00
     19  0.000000D+00  0.000000D+00  0.000000D+00  0.000000D+00  0.000000D+00
     20  0.000000D+00  0.000000D+00  0.000000D+00  0.000000D+00  0.000000D+00
     21  0.000000D+00  0.000000D+00  0.000000D+00  0.000000D+00  0.000000D+00
               16            17            18            19            20 
     16  0.544462D-02
     17 -0.113766D-01  0.237717D-01
     18  0.112822D-01 -0.235744D-01  0.233788D-01
     19 -0.544462D-02  0.113766D-01 -0.112822D-01  0.544462D-02
     20  0.113766D-01 -0.237717D-01  0.235744D-01 -0.113766D-01  0.237717D-01
     21 -0.112822D-01  0.235744D-01 -0.233788D-01  0.112822D-01 -0.235744D-01
               21 
     21  0.233788D-01
 Leave Link  716 at Thu Nov 23 12:39:37 2023, MaxMem=   104857600 cpu:               0.7 elap:               1.0
 (Enter /home/sekinelabo/g16/l103.exe)

 GradGradGradGradGradGradGradGradGradGradGradGradGradGradGradGradGradGrad
 Berny optimization.
 Search for a local minimum.
 Step number   1 out of a maximum of    2
 All quantities printed in internal units (Hartrees-Bohrs-Radians)
 Second derivative matrix not updated -- first step.
 ITU=  0
     Eigenvalues ---   -0.00000  -0.00000   0.00000   0.00000   0.00000
     Eigenvalues ---    0.00086   0.00656   0.02767   0.03597   0.09344
     Eigenvalues ---    0.10049   0.10519   0.23151   0.66428   0.85714
 Eigenvalue     1 is  -2.22D-16 should be greater than     0.000000 Eigenvector:
                          Z3        Z6        Z7        Y2        Y4
   1                    0.51617  -0.40547  -0.37594  -0.31725   0.31460
                          Z4        Y3        Y5        X7        X6
   1                    0.26800   0.25339  -0.21459   0.14286  -0.09067
 Eigenvalue     2 is  -2.22D-16 should be greater than     0.000000 Eigenvector:
                          Z7        Z6        Y7        Y6        X7
   1                    0.54854  -0.50265   0.44887  -0.42781  -0.17808
                          X6        Y4        Z5        Y5        Z4
   1                    0.16832  -0.02009  -0.01900  -0.01858  -0.01784
 Eigenvalue     3 is   2.22D-16 Eigenvector:
                          Z2        Y2        X7        Y4        X6
   1                    0.54677   0.41833   0.34437  -0.34311  -0.28917
                          Z7        Z6        X2        Y7        Y6
   1                   -0.24163  -0.21047   0.14352   0.14168  -0.13062
 Eigenvalue     4 is   6.66D-16 Eigenvector:
                          Z5        Z6        Z7        Z3        Z4
   1                    0.69420  -0.32462  -0.28784  -0.27534   0.27522
                          X2        X4        Y5        Y3        Y4
   1                   -0.21427   0.18805   0.16479  -0.14397  -0.10714
 Eigenvalue     5 is   1.11D-15 Eigenvector:
                          X6        X7        Z2        Y7        Y6
   1                    0.53827  -0.50172   0.35364  -0.23048   0.21963
                          Z6        Z3        X2        Y5        Z7
   1                   -0.20889   0.19627   0.18279   0.16261  -0.16089
 Quadratic step=4.869D-01 exceeds max=3.000D-01 adjusted using Lamda=-6.446D-04.
 Angle between NR and scaled steps=  11.62 degrees.
 Angle between quadratic step and forces=  60.47 degrees.
 Linear search not attempted -- first point.
 B after Tr=     0.000000    0.000000    0.000000
         Rot=    1.000000    0.000000   -0.000000   -0.000000 Ang=   0.00 deg.
 Variable       Old X    -DE/DX   Delta X   Delta X   Delta X     New X
                                 (Linear)    (Quad)   (Total)
    X1       21.66174  -0.00000   0.00000  -0.00001  -0.00001  21.66173
    Y1        2.44797   0.00000   0.00000   0.00000   0.00000   2.44797
    Z1      187.38978   0.00000   0.00000   0.00000   0.00000 187.38978
    X2       18.56212   0.00037   0.00000   0.09680   0.09680  18.65892
    Y2        5.81357   0.00280   0.00000   0.06789   0.06789   5.88147
    Z2        1.87166  -0.00299   0.00000   0.00831   0.00831   1.87997
    X3       18.10921  -0.00070   0.00000  -0.04418  -0.04418  18.06503
    Y3        2.21344  -0.00294   0.00000  -0.11556  -0.11556   2.09788
    Z3        5.95320   0.00339   0.00000  -0.04598  -0.04598   5.90723
    X4       10.90827   0.00543   0.00000   0.06103   0.06103  10.96931
    Y4        2.77699  -0.00077   0.00000   0.14859   0.14859   2.92558
    Z4        8.74650   0.00133   0.00000   0.03130   0.03130   8.77780
    X5        6.03414  -0.00510   0.00000  -0.11364  -0.11364   5.92050
    Y5        3.89576   0.00092   0.00000  -0.10091  -0.10091   3.79486
    Z5        6.70490  -0.00172   0.00000   0.00686   0.00686   6.71176
    X6        5.07671   0.00227   0.00000   0.02468   0.02468   5.10140
    Y6        6.80424  -0.00473   0.00000  -0.04438  -0.04438   6.75986
    Z6      188.35732   0.00469   0.00000   0.04275   0.04275 188.40006
    X7        3.37966  -0.00226   0.00000  -0.02469  -0.02469   3.35498
    Y7       10.35026   0.00473   0.00000   0.04437   0.04437  10.39463
    Z7      184.84073  -0.00469   0.00000  -0.04324  -0.04324 184.79749
         Item               Value     Threshold  Converged?
 Maximum Force            0.005432     0.000450     NO 
 RMS     Force            0.003072     0.000300     NO 
 Maximum Displacement     0.148589     0.001800     NO 
 RMS     Displacement     0.065557     0.001200     NO 
 Predicted change in Energy=-1.071116D-03
 GradGradGradGradGradGradGradGradGradGradGradGradGradGradGradGradGradGrad

 Leave Link  103 at Thu Nov 23 12:39:43 2023, MaxMem=   104857600 cpu:               3.8 elap:               5.0
 (Enter /home/sekinelabo/g16/l9999.exe)
 1\1\GINC-SEKINELABO-XA7R-R37\Force\UB3LYP\6-311+G(d)\Na7(2)\SEKINELABO
 \23-Nov-2023\0\\#P B3LYP/6-311+g(d) force\\DPGEN\\0,2\Na,11.4629,1.295
 41,99.1624\Na,9.82265,3.07641,0.990441\Na,9.58298,1.1713,3.1503\Na,5.7
 7241,1.46952,4.62845\Na,3.19313,2.06155,3.54808\Na,2.68648,3.60065,99.
 6744\Na,1.78844,5.47712,97.8135\\Version=ES64L-G16RevB.01\State=2-A\HF
 =-1136.0869022\S2=0.750013\S2-1=0.\S2A=0.75\RMSD=3.045e-09\RMSF=3.072e
 -03\Dipole=0.1664433,0.1621081,-0.3041755\Quadrupole=-15.4427817,-15.1
 450794,30.587861,-2.585077,-9.6062685,-18.4190065\PG=C01 [X(Na7)]\\@


 WE THE UNWILLING
 LED BY THE UNQUALIFIED
 HAVE BEEN DOING THE UNBELIEVABLE SO LONG WITH SO LITTLE
 THAT WE NOW ATTEMPT THE IMPOSSIBLE WITH NOTHING.

                                    -- ANONYMOUS
 Job cpu time:       0 days  0 hours  7 minutes 30.3 seconds.
 Elapsed time:       0 days  0 hours  9 minutes 22.1 seconds.
 File lengths (MBytes):  RWF=     46 Int=      0 D2E=      0 Chk=      4 Scr=      1
 Normal termination of Gaussian 16 at Thu Nov 23 12:39:44 2023.
