 Entering Gaussian System, Link 0=g16
 Initial command:
 /home/sekinelabo/g16/l1.exe "/home/sekinelabo/g16temp/Gau-934197.inp" -scrdir="/home/sekinelabo/g16temp/"
 Entering Link 1 = /home/sekinelabo/g16/l1.exe PID=    934226.
  
 Copyright (c) 1988-2017, Gaussian, Inc.  All Rights Reserved.
  
 This is part of the Gaussian(R) 16 program.  It is based on
 the Gaussian(R) 09 system (copyright 2009, Gaussian, Inc.),
 the Gaussian(R) 03 system (copyright 2003, Gaussian, Inc.),
 the Gaussian(R) 98 system (copyright 1998, Gaussian, Inc.),
 the Gaussian(R) 94 system (copyright 1995, Gaussian, Inc.),
 the Gaussian 92(TM) system (copyright 1992, Gaussian, Inc.),
 the Gaussian 90(TM) system (copyright 1990, Gaussian, Inc.),
 the Gaussian 88(TM) system (copyright 1988, Gaussian, Inc.),
 the Gaussian 86(TM) system (copyright 1986, Carnegie Mellon
 University), and the Gaussian 82(TM) system (copyright 1983,
 Carnegie Mellon University). Gaussian is a federally registered
 trademark of Gaussian, Inc.
  
 This software contains proprietary and confidential information,
 including trade secrets, belonging to Gaussian, Inc.
  
 This software is provided under written license and may be
 used, copied, transmitted, or stored only in accord with that
 written license.
  
 The following legend is applicable only to US Government
 contracts under FAR:
  
                    RESTRICTED RIGHTS LEGEND
  
 Use, reproduction and disclosure by the US Government is
 subject to restrictions as set forth in subparagraphs (a)
 and (c) of the Commercial Computer Software - Restricted
 Rights clause in FAR 52.227-19.
  
 Gaussian, Inc.
 340 Quinnipiac St., Bldg. 40, Wallingford CT 06492
  
  
 ---------------------------------------------------------------
 Warning -- This program may not be used in any manner that
 competes with the business of Gaussian, Inc. or will provide
 assistance to any competitor of Gaussian, Inc.  The licensee
 of this program is prohibited from giving any competitor of
 Gaussian, Inc. access to this program.  By using this program,
 the user acknowledges that Gaussian, Inc. is engaged in the
 business of creating and licensing software in the field of
 computational chemistry and represents and warrants to the
 licensee that it is not a competitor of Gaussian, Inc. and that
 it will not use this program in any manner prohibited above.
 ---------------------------------------------------------------
  

 Cite this work as:
 Gaussian 16, Revision B.01,
 M. J. Frisch, G. W. Trucks, H. B. Schlegel, G. E. Scuseria, 
 M. A. Robb, J. R. Cheeseman, G. Scalmani, V. Barone, 
 G. A. Petersson, H. Nakatsuji, X. Li, M. Caricato, A. V. Marenich, 
 J. Bloino, B. G. Janesko, R. Gomperts, B. Mennucci, H. P. Hratchian, 
 J. V. Ortiz, A. F. Izmaylov, J. L. Sonnenberg, D. Williams-Young, 
 F. Ding, F. Lipparini, F. Egidi, J. Goings, B. Peng, A. Petrone, 
 T. Henderson, D. Ranasinghe, V. G. Zakrzewski, J. Gao, N. Rega, 
 G. Zheng, W. Liang, M. Hada, M. Ehara, K. Toyota, R. Fukuda, 
 J. Hasegawa, M. Ishida, T. Nakajima, Y. Honda, O. Kitao, H. Nakai, 
 T. Vreven, K. Throssell, J. A. Montgomery, Jr., J. E. Peralta, 
 F. Ogliaro, M. J. Bearpark, J. J. Heyd, E. N. Brothers, K. N. Kudin, 
 V. N. Staroverov, T. A. Keith, R. Kobayashi, J. Normand, 
 K. Raghavachari, A. P. Rendell, J. C. Burant, S. S. Iyengar, 
 J. Tomasi, M. Cossi, J. M. Millam, M. Klene, C. Adamo, R. Cammi, 
 J. W. Ochterski, R. L. Martin, K. Morokuma, O. Farkas, 
 J. B. Foresman, and D. J. Fox, Gaussian, Inc., Wallingford CT, 2016.
 
 ******************************************
 Gaussian 16:  ES64L-G16RevB.01 20-Dec-2017
                21-Nov-2023 
 ******************************************
 %nprocshared=14
 Will use up to   14 processors via shared memory.
 -------------------------
 #P B3LYP/6-311+g(d) force
 -------------------------
 1/10=7,30=1,38=1/1,3;
 2/12=2,17=6,18=5,40=1/2;
 3/5=4,6=6,7=11,11=2,25=1,30=1,71=1,74=-5/1,2,3;
 4//1;
 5/5=2,38=5/2;
 6/7=2,8=2,9=2,10=2,28=1/1;
 7/29=1/1,2,3,16;
 1/10=7,30=1/3;
 99//99;
 Leave Link    1 at Tue Nov 21 11:40:17 2023, MaxMem=           0 cpu:               0.4 elap:               0.4
 (Enter /home/sekinelabo/g16/l101.exe)
 -----
 DPGEN
 -----
 Symbolic Z-matrix:
 Charge =  0 Multiplicity = 2
 Na                    9.82597   29.847    1.45471 
 Na                    10.4644   2.13949   29.408 
 Na                    9.12243   4.99594   29.983 
 Na                    6.613     5.10931   1.96251 
 Na                    5.53116   2.07746   2.11893 
 Na                    2.69095   2.29997   0.9505 
 Na                    0.06108   1.68275   3.09005 
 
 ITRead=  0  0  0  0  0  0  0
 MicOpt= -1 -1 -1 -1 -1 -1 -1
 NAtoms=      7 NQM=        7 NQMF=       0 NMMI=      0 NMMIF=      0
                NMic=       0 NMicF=      0.
                    Isotopes and Nuclear Properties:
 (Nuclear quadrupole moments (NQMom) in fm**2, nuclear magnetic moments (NMagM)
  in nuclear magnetons)

  Atom         1           2           3           4           5           6           7
 IAtWgt=          23          23          23          23          23          23          23
 AtmWgt=  22.9897697  22.9897697  22.9897697  22.9897697  22.9897697  22.9897697  22.9897697
 NucSpn=           3           3           3           3           3           3           3
 AtZEff=  -0.0000000  -0.0000000  -0.0000000  -0.0000000  -0.0000000  -0.0000000  -0.0000000
 NQMom=   10.4000000  10.4000000  10.4000000  10.4000000  10.4000000  10.4000000  10.4000000
 NMagM=    2.2175200   2.2175200   2.2175200   2.2175200   2.2175200   2.2175200   2.2175200
 AtZNuc=  11.0000000  11.0000000  11.0000000  11.0000000  11.0000000  11.0000000  11.0000000
 Leave Link  101 at Tue Nov 21 11:40:20 2023, MaxMem=   104857600 cpu:               2.7 elap:               2.8
 (Enter /home/sekinelabo/g16/l103.exe)

 GradGradGradGradGradGradGradGradGradGradGradGradGradGradGradGradGradGrad
 Berny optimization.
 Initialization pass.
 Trust Radius=3.00D-01 FncErr=1.00D-07 GrdErr=1.00D-07 EigMax=2.50D+02 EigMin=1.00D-04
 Number of steps in this run=      2 maximum allowed number of steps=      2.
 GradGradGradGradGradGradGradGradGradGradGradGradGradGradGradGradGradGrad

 Leave Link  103 at Tue Nov 21 11:40:20 2023, MaxMem=   104857600 cpu:               0.5 elap:               0.4
 (Enter /home/sekinelabo/g16/l202.exe)
                          Input orientation:                          
 ---------------------------------------------------------------------
 Center     Atomic      Atomic             Coordinates (Angstroms)
 Number     Number       Type             X           Y           Z
 ---------------------------------------------------------------------
      1         11           0        9.825970   29.847000    1.454710
      2         11           0       10.464400    2.139490   29.408000
      3         11           0        9.122430    4.995940   29.983000
      4         11           0        6.613000    5.109310    1.962510
      5         11           0        5.531160    2.077460    2.118930
      6         11           0        2.690950    2.299970    0.950504
      7         11           0        0.061080    1.682750    3.090050
 ---------------------------------------------------------------------
                    Distance matrix (angstroms):
                    1          2          3          4          5
     1  Na   0.000000
     2  Na  39.363690   0.000000
     3  Na  37.840897   3.207930   0.000000
     4  Na  24.950638  27.873070  28.132862   0.000000
     5  Na  28.107542  27.731463  28.245728   3.222881   0.000000
     6  Na  28.460527  29.500531  29.858299   4.929404   3.079208
     7  Na  29.853851  28.303218  28.571245   7.479326   5.569618
                    6          7
     6  Na   0.000000
     7  Na   3.445988   0.000000
 Stoichiometry    Na7(2)
 Framework group  C1[X(Na7)]
 Deg. of freedom    15
 Full point group                 C1      NOp   1
 Largest Abelian subgroup         C1      NOp   1
 Largest concise Abelian subgroup C1      NOp   1
                         Standard orientation:                         
 ---------------------------------------------------------------------
 Center     Atomic      Atomic             Coordinates (Angstroms)
 Number     Number       Type             X           Y           Z
 ---------------------------------------------------------------------
      1         11           0      -14.430708   20.047221    0.381921
      2         11           0       20.435523    1.828762   -1.008667
      3         11           0       19.939043    4.229707    1.060096
      4         11           0       -6.876659   -3.578766   -2.316855
      5         11           0       -5.951270   -6.646941   -1.974926
      6         11           0       -7.490681   -7.553772    0.532941
      7         11           0       -5.625248   -8.326211    3.325490
 ---------------------------------------------------------------------
 Rotational constants (GHZ):           0.0349266           0.0180664           0.0122101
 Leave Link  202 at Tue Nov 21 11:40:21 2023, MaxMem=   104857600 cpu:               0.8 elap:               0.9
 (Enter /home/sekinelabo/g16/l301.exe)
 Standard basis: 6-311+G(d) (5D, 7F)
 Ernie: Thresh=  0.10000D-02 Tol=  0.10000D-05 Strict=F.
 There are   217 symmetry adapted cartesian basis functions of A   symmetry.
 There are   210 symmetry adapted basis functions of A   symmetry.
   210 basis functions,   350 primitive gaussians,   217 cartesian basis functions
    39 alpha electrons       38 beta electrons
       nuclear repulsion energy       142.7750531641 Hartrees.
 IExCor=  402 DFT=T Ex+Corr=B3LYP ExCW=0 ScaHFX=  0.200000
 ScaDFX=  0.800000  0.720000  1.000000  0.810000 ScalE2=  1.000000  1.000000
 IRadAn=      5 IRanWt=     -1 IRanGd=            0 ICorTp=0 IEmpDi=  4
 NAtoms=    7 NActive=    7 NUniq=    7 SFac= 1.00D+00 NAtFMM=   60 NAOKFM=F Big=F
 Integral buffers will be    131072 words long.
 Raffenetti 2 integral format.
 Two-electron integral symmetry is turned on.
 Leave Link  301 at Tue Nov 21 11:40:22 2023, MaxMem=   104857600 cpu:               0.8 elap:               0.8
 (Enter /home/sekinelabo/g16/l302.exe)
 NPDir=0 NMtPBC=     1 NCelOv=     1 NCel=       1 NClECP=     1 NCelD=      1
         NCelK=      1 NCelE2=     1 NClLst=     1 CellRange=     0.0.
 One-electron integrals computed using PRISM.
 One-electron integral symmetry used in STVInt
 NBasis=   210 RedAO= T EigKep=  1.09D-04  NBF=   210
 NBsUse=   210 1.00D-06 EigRej= -1.00D+00 NBFU=   210
 Precomputing XC quadrature grid using
 IXCGrd= 4 IRadAn=           5 IRanWt=          -1 IRanGd=           0 AccXCQ= 0.00D+00.
 Generated NRdTot=       0 NPtTot=           0 NUsed=           0 NTot=          32
 NSgBfM=   140   140   140   140   140 MxSgAt=     7 MxSgA2=     7.
 Leave Link  302 at Tue Nov 21 11:40:54 2023, MaxMem=   104857600 cpu:              29.7 elap:              32.2
 (Enter /home/sekinelabo/g16/l303.exe)
 DipDrv:  MaxL=1.
 Leave Link  303 at Tue Nov 21 11:40:57 2023, MaxMem=   104857600 cpu:               2.4 elap:               2.5
 (Enter /home/sekinelabo/g16/l401.exe)
 ExpMin= 7.60D-03 ExpMax= 3.62D+04 ExpMxC= 1.21D+03 IAcc=3 IRadAn=         5 AccDes= 0.00D+00
 Harris functional with IExCor=  402 and IRadAn=       5 diagonalized for initial guess.
 HarFok:  IExCor=  402 AccDes= 0.00D+00 IRadAn=         5 IDoV= 1 UseB2=F ITyADJ=14
 ICtDFT=  3500011 ScaDFX=  1.000000  1.000000  1.000000  1.000000
 FoFCou: FMM=F IPFlag=           0 FMFlag=      100000 FMFlg1=           0
         NFxFlg=           0 DoJE=T BraDBF=F KetDBF=T FulRan=T
         wScrn=  0.000000 ICntrl=       500 IOpCl=  0 I1Cent=   200000004 NGrid=           0
         NMat0=    1 NMatS0=      1 NMatT0=    0 NMatD0=    1 NMtDS0=    0 NMtDT0=    0
 Petite list used in FoFCou.
 Harris En= -1135.85877715245    
 JPrj=0 DoOrth=F DoCkMO=F.
 Initial guess <Sx>= 0.0000 <Sy>= 0.0000 <Sz>= 0.5000 <S**2>= 0.7500 S= 0.5000
 Leave Link  401 at Tue Nov 21 11:41:14 2023, MaxMem=   104857600 cpu:              15.7 elap:              16.7
 (Enter /home/sekinelabo/g16/l502.exe)
 Integral symmetry usage will be decided dynamically.
 UHF open shell SCF:
 Using DIIS extrapolation, IDIIS=  1040.
 NGot=   104857600 LenX=   104758426 LenY=   104710896
 Requested convergence on RMS density matrix=1.00D-08 within 128 cycles.
 Requested convergence on MAX density matrix=1.00D-06.
 Requested convergence on             energy=1.00D-06.
 No special actions if energy rises.
 Fock matrices will be formed incrementally for  20 cycles.

 Cycle   1  Pass 1  IDiag  1:
 FoFJK:  IHMeth= 1 ICntrl=       0 DoSepK=F KAlg= 0 I1Cent=           0 FoldK=F
 IRaf= 500000000 NMat=       1 IRICut=       1 DoRegI=T DoRafI=F ISym2E= 0 IDoP0=0 IntGTp=1.
 FoFCou: FMM=F IPFlag=           0 FMFlag=      100000 FMFlg1=           0
         NFxFlg=           0 DoJE=F BraDBF=F KetDBF=F FulRan=T
         wScrn=  0.000000 ICntrl=         0 IOpCl=  1 I1Cent=           0 NGrid=           0
         NMat0=    1 NMatS0=      1 NMatT0=    0 NMatD0=    1 NMtDS0=    0 NMtDT0=    0
 Symmetry not used in FoFCou.
 E= -1136.06522664308    
 DIIS: error= 2.00D-02 at cycle   1 NSaved=   1.
 NSaved= 1 IEnMin= 1 EnMin= -1136.06522664308     IErMin= 1 ErrMin= 2.00D-02
 ErrMax= 2.00D-02  0.00D+00 EMaxC= 1.00D-01 BMatC= 1.83D-01 BMatP= 1.83D-01
 IDIUse=3 WtCom= 8.00D-01 WtEn= 2.00D-01
 Coeff-Com:  0.100D+01
 Coeff-En:   0.100D+01
 Coeff:      0.100D+01
 Gap=     0.069 Goal=   None    Shift=    0.000
 Gap=     0.037 Goal=   None    Shift=    0.000
 GapD=    0.037 DampG=0.250 DampE=0.500 DampFc=0.2500 IDamp=-1.
 Damping current iteration by 2.50D-01
 RMSDP=2.45D-03 MaxDP=1.02D-01              OVMax= 1.22D-01

 Cycle   2  Pass 1  IDiag  1:
 RMSU=  6.01D-04    CP:  9.95D-01
 E= -1136.07280508717     Delta-E=       -0.007578444089 Rises=F Damp=T
 DIIS: error= 1.39D-02 at cycle   2 NSaved=   2.
 NSaved= 2 IEnMin= 2 EnMin= -1136.07280508717     IErMin= 2 ErrMin= 1.39D-02
 ErrMax= 1.39D-02  0.00D+00 EMaxC= 1.00D-01 BMatC= 7.09D-02 BMatP= 1.83D-01
 IDIUse=3 WtCom= 8.61D-01 WtEn= 1.39D-01
 Coeff-Com: -0.131D+01 0.231D+01
 Coeff-En:   0.000D+00 0.100D+01
 Coeff:     -0.113D+01 0.213D+01
 Gap=     0.047 Goal=   None    Shift=    0.000
 Gap=     0.052 Goal=   None    Shift=    0.000
 RMSDP=2.06D-03 MaxDP=9.68D-02 DE=-7.58D-03 OVMax= 7.73D-02

 Cycle   3  Pass 1  IDiag  1:
 RMSU=  1.07D-03    CP:  9.71D-01  3.00D+00
 E= -1136.08829857806     Delta-E=       -0.015493490885 Rises=F Damp=F
 DIIS: error= 7.16D-04 at cycle   3 NSaved=   3.
 NSaved= 3 IEnMin= 3 EnMin= -1136.08829857806     IErMin= 3 ErrMin= 7.16D-04
 ErrMax= 7.16D-04  0.00D+00 EMaxC= 1.00D-01 BMatC= 4.17D-04 BMatP= 7.09D-02
 IDIUse=3 WtCom= 9.93D-01 WtEn= 7.16D-03
 Coeff-Com:  0.910D-01-0.107D+00 0.102D+01
 Coeff-En:   0.000D+00 0.000D+00 0.100D+01
 Coeff:      0.903D-01-0.106D+00 0.102D+01
 Gap=     0.047 Goal=   None    Shift=    0.000
 Gap=     0.047 Goal=   None    Shift=    0.000
 RMSDP=4.43D-04 MaxDP=3.96D-02 DE=-1.55D-02 OVMax= 4.90D-02

 Cycle   4  Pass 1  IDiag  1:
 RMSU=  4.37D-04    CP:  9.68D-01  3.00D+00  1.04D+00
 E= -1136.08801344140     Delta-E=        0.000285136658 Rises=F Damp=F
 DIIS: error= 1.11D-03 at cycle   4 NSaved=   4.
 NSaved= 4 IEnMin= 3 EnMin= -1136.08829857806     IErMin= 3 ErrMin= 7.16D-04
 ErrMax= 1.11D-03  0.00D+00 EMaxC= 1.00D-01 BMatC= 4.70D-04 BMatP= 4.17D-04
 IDIUse=3 WtCom= 2.31D-01 WtEn= 7.69D-01
 Coeff-Com:  0.685D-01-0.903D-01 0.591D+00 0.431D+00
 Coeff-En:   0.000D+00 0.000D+00 0.677D+00 0.323D+00
 Coeff:      0.158D-01-0.208D-01 0.657D+00 0.348D+00
 Gap=     0.048 Goal=   None    Shift=    0.000
 Gap=     0.048 Goal=   None    Shift=    0.000
 RMSDP=2.20D-04 MaxDP=2.54D-02 DE= 2.85D-04 OVMax= 3.41D-02

 Cycle   5  Pass 1  IDiag  1:
 RMSU=  6.57D-05    CP:  9.69D-01  3.00D+00  1.12D+00  5.64D-01
 E= -1136.08852441534     Delta-E=       -0.000510973938 Rises=F Damp=F
 DIIS: error= 2.24D-04 at cycle   5 NSaved=   5.
 NSaved= 5 IEnMin= 5 EnMin= -1136.08852441534     IErMin= 5 ErrMin= 2.24D-04
 ErrMax= 2.24D-04  0.00D+00 EMaxC= 1.00D-01 BMatC= 4.11D-05 BMatP= 4.17D-04
 IDIUse=3 WtCom= 9.98D-01 WtEn= 2.24D-03
 Coeff-Com: -0.899D-02 0.119D-01 0.223D+00 0.795D-01 0.694D+00
 Coeff-En:   0.000D+00 0.000D+00 0.000D+00 0.000D+00 0.100D+01
 Coeff:     -0.897D-02 0.119D-01 0.223D+00 0.793D-01 0.695D+00
 Gap=     0.047 Goal=   None    Shift=    0.000
 Gap=     0.047 Goal=   None    Shift=    0.000
 RMSDP=3.62D-05 MaxDP=3.29D-03 DE=-5.11D-04 OVMax= 3.81D-03

 Cycle   6  Pass 1  IDiag  1:
 RMSU=  2.02D-05    CP:  9.68D-01  3.00D+00  1.13D+00  5.40D-01  6.03D-01
 E= -1136.08853053449     Delta-E=       -0.000006119151 Rises=F Damp=F
 DIIS: error= 7.09D-05 at cycle   6 NSaved=   6.
 NSaved= 6 IEnMin= 6 EnMin= -1136.08853053449     IErMin= 6 ErrMin= 7.09D-05
 ErrMax= 7.09D-05  0.00D+00 EMaxC= 1.00D-01 BMatC= 1.96D-06 BMatP= 4.11D-05
 IDIUse=1 WtCom= 1.00D+00 WtEn= 0.00D+00
 Coeff-Com: -0.153D-01 0.202D-01 0.454D-01-0.167D-01 0.402D+00 0.565D+00
 Coeff:     -0.153D-01 0.202D-01 0.454D-01-0.167D-01 0.402D+00 0.565D+00
 Gap=     0.047 Goal=   None    Shift=    0.000
 Gap=     0.047 Goal=   None    Shift=    0.000
 RMSDP=1.89D-05 MaxDP=1.59D-03 DE=-6.12D-06 OVMax= 2.71D-03

 Cycle   7  Pass 1  IDiag  1:
 RMSU=  9.46D-06    CP:  9.68D-01  3.00D+00  1.14D+00  5.39D-01  8.11D-01
                    CP:  6.58D-01
 E= -1136.08853298295     Delta-E=       -0.000002448457 Rises=F Damp=F
 DIIS: error= 8.23D-06 at cycle   7 NSaved=   7.
 NSaved= 7 IEnMin= 7 EnMin= -1136.08853298295     IErMin= 7 ErrMin= 8.23D-06
 ErrMax= 8.23D-06  0.00D+00 EMaxC= 1.00D-01 BMatC= 3.03D-08 BMatP= 1.96D-06
 IDIUse=1 WtCom= 1.00D+00 WtEn= 0.00D+00
 Coeff-Com: -0.175D-02 0.228D-02-0.637D-02-0.654D-02 0.845D-02 0.100D+00
 Coeff-Com:  0.904D+00
 Coeff:     -0.175D-02 0.228D-02-0.637D-02-0.654D-02 0.845D-02 0.100D+00
 Coeff:      0.904D+00
 Gap=     0.047 Goal=   None    Shift=    0.000
 Gap=     0.047 Goal=   None    Shift=    0.000
 RMSDP=3.84D-06 MaxDP=2.23D-04 DE=-2.45D-06 OVMax= 3.35D-04

 Cycle   8  Pass 1  IDiag  1:
 RMSU=  1.73D-06    CP:  9.68D-01  3.00D+00  1.14D+00  5.43D-01  8.08D-01
                    CP:  7.51D-01  1.00D+00
 E= -1136.08853301850     Delta-E=       -0.000000035559 Rises=F Damp=F
 DIIS: error= 2.12D-06 at cycle   8 NSaved=   8.
 NSaved= 8 IEnMin= 8 EnMin= -1136.08853301850     IErMin= 8 ErrMin= 2.12D-06
 ErrMax= 2.12D-06  0.00D+00 EMaxC= 1.00D-01 BMatC= 2.31D-09 BMatP= 3.03D-08
 IDIUse=1 WtCom= 1.00D+00 WtEn= 0.00D+00
 Coeff-Com:  0.541D-03-0.729D-03-0.289D-02-0.236D-03-0.176D-01-0.111D-01
 Coeff-Com:  0.225D+00 0.807D+00
 Coeff:      0.541D-03-0.729D-03-0.289D-02-0.236D-03-0.176D-01-0.111D-01
 Coeff:      0.225D+00 0.807D+00
 Gap=     0.047 Goal=   None    Shift=    0.000
 Gap=     0.047 Goal=   None    Shift=    0.000
 RMSDP=8.93D-07 MaxDP=4.43D-05 DE=-3.56D-08 OVMax= 7.95D-05

 Cycle   9  Pass 1  IDiag  1:
 RMSU=  2.70D-07    CP:  9.68D-01  3.00D+00  1.14D+00  5.43D-01  8.15D-01
                    CP:  7.59D-01  1.06D+00  1.02D+00
 E= -1136.08853302084     Delta-E=       -0.000000002331 Rises=F Damp=F
 DIIS: error= 4.44D-07 at cycle   9 NSaved=   9.
 NSaved= 9 IEnMin= 9 EnMin= -1136.08853302084     IErMin= 9 ErrMin= 4.44D-07
 ErrMax= 4.44D-07  0.00D+00 EMaxC= 1.00D-01 BMatC= 1.63D-10 BMatP= 2.31D-09
 IDIUse=1 WtCom= 1.00D+00 WtEn= 0.00D+00
 Coeff-Com:  0.405D-03-0.538D-03-0.152D-03 0.814D-03-0.691D-02-0.121D-01
 Coeff-Com: -0.131D-01 0.215D+00 0.817D+00
 Coeff:      0.405D-03-0.538D-03-0.152D-03 0.814D-03-0.691D-02-0.121D-01
 Coeff:     -0.131D-01 0.215D+00 0.817D+00
 Gap=     0.047 Goal=   None    Shift=    0.000
 Gap=     0.047 Goal=   None    Shift=    0.000
 RMSDP=2.48D-07 MaxDP=1.33D-05 DE=-2.33D-09 OVMax= 2.22D-05

 Cycle  10  Pass 1  IDiag  1:
 RMSU=  5.37D-08    CP:  9.68D-01  3.00D+00  1.14D+00  5.43D-01  8.14D-01
                    CP:  7.65D-01  1.07D+00  1.09D+00  1.07D+00
 E= -1136.08853302098     Delta-E=       -0.000000000145 Rises=F Damp=F
 DIIS: error= 9.48D-08 at cycle  10 NSaved=  10.
 NSaved=10 IEnMin=10 EnMin= -1136.08853302098     IErMin=10 ErrMin= 9.48D-08
 ErrMax= 9.48D-08  0.00D+00 EMaxC= 1.00D-01 BMatC= 7.74D-12 BMatP= 1.63D-10
 IDIUse=1 WtCom= 1.00D+00 WtEn= 0.00D+00
 Coeff-Com:  0.104D-03-0.138D-03 0.376D-04 0.230D-03-0.154D-02-0.358D-02
 Coeff-Com: -0.131D-01 0.416D-01 0.267D+00 0.709D+00
 Coeff:      0.104D-03-0.138D-03 0.376D-04 0.230D-03-0.154D-02-0.358D-02
 Coeff:     -0.131D-01 0.416D-01 0.267D+00 0.709D+00
 Gap=     0.047 Goal=   None    Shift=    0.000
 Gap=     0.047 Goal=   None    Shift=    0.000
 RMSDP=4.39D-08 MaxDP=1.95D-06 DE=-1.45D-10 OVMax= 3.44D-06

 Cycle  11  Pass 1  IDiag  1:
 RMSU=  1.80D-08    CP:  9.68D-01  3.00D+00  1.14D+00  5.43D-01  8.15D-01
                    CP:  7.65D-01  1.07D+00  1.11D+00  1.09D+00  1.04D+00
 E= -1136.08853302098     Delta-E=       -0.000000000003 Rises=F Damp=F
 DIIS: error= 2.53D-08 at cycle  11 NSaved=  11.
 NSaved=11 IEnMin=11 EnMin= -1136.08853302098     IErMin=11 ErrMin= 2.53D-08
 ErrMax= 2.53D-08  0.00D+00 EMaxC= 1.00D-01 BMatC= 4.26D-13 BMatP= 7.74D-12
 IDIUse=1 WtCom= 1.00D+00 WtEn= 0.00D+00
 Coeff-Com: -0.541D-05 0.736D-05 0.198D-04-0.703D-05 0.142D-03-0.562D-04
 Coeff-Com: -0.304D-02-0.394D-02 0.149D-01 0.180D+00 0.812D+00
 Coeff:     -0.541D-05 0.736D-05 0.198D-04-0.703D-05 0.142D-03-0.562D-04
 Coeff:     -0.304D-02-0.394D-02 0.149D-01 0.180D+00 0.812D+00
 Gap=     0.047 Goal=   None    Shift=    0.000
 Gap=     0.047 Goal=   None    Shift=    0.000
 RMSDP=1.39D-08 MaxDP=7.83D-07 DE=-2.73D-12 OVMax= 8.30D-07

 Cycle  12  Pass 1  IDiag  1:
 RMSU=  6.43D-09    CP:  9.68D-01  3.00D+00  1.14D+00  5.43D-01  8.15D-01
                    CP:  7.65D-01  1.07D+00  1.12D+00  1.10D+00  1.11D+00
                    CP:  8.17D-01
 E= -1136.08853302098     Delta-E=       -0.000000000001 Rises=F Damp=F
 DIIS: error= 1.48D-08 at cycle  12 NSaved=  12.
 NSaved=12 IEnMin=12 EnMin= -1136.08853302098     IErMin=12 ErrMin= 1.48D-08
 ErrMax= 1.48D-08  0.00D+00 EMaxC= 1.00D-01 BMatC= 7.38D-14 BMatP= 4.26D-13
 IDIUse=1 WtCom= 1.00D+00 WtEn= 0.00D+00
 Coeff-Com: -0.114D-04 0.152D-04 0.655D-05-0.214D-04 0.199D-03 0.274D-03
 Coeff-Com: -0.368D-03-0.516D-02-0.132D-01 0.203D-01 0.350D+00 0.648D+00
 Coeff:     -0.114D-04 0.152D-04 0.655D-05-0.214D-04 0.199D-03 0.274D-03
 Coeff:     -0.368D-03-0.516D-02-0.132D-01 0.203D-01 0.350D+00 0.648D+00
 Gap=     0.047 Goal=   None    Shift=    0.000
 Gap=     0.047 Goal=   None    Shift=    0.000
 RMSDP=3.78D-09 MaxDP=3.04D-07 DE=-1.14D-12 OVMax= 3.60D-07

 SCF Done:  E(UB3LYP) =  -1136.08853302     A.U. after   12 cycles
            NFock= 12  Conv=0.38D-08     -V/T= 2.0029
 <Sx>= 0.0000 <Sy>= 0.0000 <Sz>= 0.5000 <S**2>= 0.7500 S= 0.5000
 <L.S>= 0.000000000000E+00
 KE= 1.132829151795D+03 PE=-3.014398178938D+03 EE= 6.027054409581D+02
 Annihilation of the first spin contaminant:
 S**2 before annihilation     0.7500,   after     0.7500
 Leave Link  502 at Tue Nov 21 11:47:06 2023, MaxMem=   104857600 cpu:             324.9 elap:             352.1
 (Enter /home/sekinelabo/g16/l601.exe)
 Copying SCF densities to generalized density rwf, IOpCl= 1 IROHF=0.

 **********************************************************************

            Population analysis using the SCF Density.

 **********************************************************************

 Orbital symmetries:
 Alpha Orbitals:
       Occupied  (A) (A) (A) (A) (A) (A) (A) (A) (A) (A) (A) (A)
                 (A) (A) (A) (A) (A) (A) (A) (A) (A) (A) (A) (A)
                 (A) (A) (A) (A) (A) (A) (A) (A) (A) (A) (A) (A)
                 (A) (A) (A)
       Virtual   (A) (A) (A) (A) (A) (A) (A) (A) (A) (A) (A) (A)
                 (A) (A) (A) (A) (A) (A) (A) (A) (A) (A) (A) (A)
                 (A) (A) (A) (A) (A) (A) (A) (A) (A) (A) (A) (A)
                 (A) (A) (A) (A) (A) (A) (A) (A) (A) (A) (A) (A)
                 (A) (A) (A) (A) (A) (A) (A) (A) (A) (A) (A) (A)
                 (A) (A) (A) (A) (A) (A) (A) (A) (A) (A) (A) (A)
                 (A) (A) (A) (A) (A) (A) (A) (A) (A) (A) (A) (A)
                 (A) (A) (A) (A) (A) (A) (A) (A) (A) (A) (A) (A)
                 (A) (A) (A) (A) (A) (A) (A) (A) (A) (A) (A) (A)
                 (A) (A) (A) (A) (A) (A) (A) (A) (A) (A) (A) (A)
                 (A) (A) (A) (A) (A) (A) (A) (A) (A) (A) (A) (A)
                 (A) (A) (A) (A) (A) (A) (A) (A) (A) (A) (A) (A)
                 (A) (A) (A) (A) (A) (A) (A) (A) (A) (A) (A) (A)
                 (A) (A) (A) (A) (A) (A) (A) (A) (A) (A) (A) (A)
                 (A) (A) (A)
 Beta  Orbitals:
       Occupied  (A) (A) (A) (A) (A) (A) (A) (A) (A) (A) (A) (A)
                 (A) (A) (A) (A) (A) (A) (A) (A) (A) (A) (A) (A)
                 (A) (A) (A) (A) (A) (A) (A) (A) (A) (A) (A) (A)
                 (A) (A)
       Virtual   (A) (A) (A) (A) (A) (A) (A) (A) (A) (A) (A) (A)
                 (A) (A) (A) (A) (A) (A) (A) (A) (A) (A) (A) (A)
                 (A) (A) (A) (A) (A) (A) (A) (A) (A) (A) (A) (A)
                 (A) (A) (A) (A) (A) (A) (A) (A) (A) (A) (A) (A)
                 (A) (A) (A) (A) (A) (A) (A) (A) (A) (A) (A) (A)
                 (A) (A) (A) (A) (A) (A) (A) (A) (A) (A) (A) (A)
                 (A) (A) (A) (A) (A) (A) (A) (A) (A) (A) (A) (A)
                 (A) (A) (A) (A) (A) (A) (A) (A) (A) (A) (A) (A)
                 (A) (A) (A) (A) (A) (A) (A) (A) (A) (A) (A) (A)
                 (A) (A) (A) (A) (A) (A) (A) (A) (A) (A) (A) (A)
                 (A) (A) (A) (A) (A) (A) (A) (A) (A) (A) (A) (A)
                 (A) (A) (A) (A) (A) (A) (A) (A) (A) (A) (A) (A)
                 (A) (A) (A) (A) (A) (A) (A) (A) (A) (A) (A) (A)
                 (A) (A) (A) (A) (A) (A) (A) (A) (A) (A) (A) (A)
                 (A) (A) (A) (A)
 The electronic state is 2-A.
 Alpha  occ. eigenvalues --  -38.45786 -38.44613 -38.44527 -38.44324 -38.44323
 Alpha  occ. eigenvalues --  -38.44108 -38.44096  -2.21571  -2.20379  -2.20362
 Alpha  occ. eigenvalues --   -2.20089  -2.20086  -2.19922  -2.19841  -1.15183
 Alpha  occ. eigenvalues --   -1.15183  -1.15183  -1.14089  -1.14074  -1.14045
 Alpha  occ. eigenvalues --   -1.14038  -1.14012  -1.13936  -1.13802  -1.13759
 Alpha  occ. eigenvalues --   -1.13759  -1.13742  -1.13742  -1.13661  -1.13615
 Alpha  occ. eigenvalues --   -1.13586  -1.13540  -1.13512  -1.13510  -1.13456
 Alpha  occ. eigenvalues --   -0.14896  -0.12907  -0.12814  -0.11558
 Alpha virt. eigenvalues --   -0.06822  -0.05767  -0.04744  -0.03071  -0.02452
 Alpha virt. eigenvalues --   -0.02296  -0.02296  -0.02113  -0.02112  -0.02112
 Alpha virt. eigenvalues --   -0.01851  -0.01140  -0.00940  -0.00754  -0.00034
 Alpha virt. eigenvalues --    0.00055   0.00105   0.00523   0.00539   0.00539
 Alpha virt. eigenvalues --    0.00614   0.00762   0.00769   0.00840   0.01112
 Alpha virt. eigenvalues --    0.01291   0.01292   0.01307   0.01320   0.01320
 Alpha virt. eigenvalues --    0.01399   0.01526   0.01579   0.01769   0.01772
 Alpha virt. eigenvalues --    0.01851   0.02078   0.02174   0.02216   0.02422
 Alpha virt. eigenvalues --    0.02447   0.02546   0.02745   0.02746   0.02941
 Alpha virt. eigenvalues --    0.03183   0.03494   0.03803   0.04207   0.04336
 Alpha virt. eigenvalues --    0.04859   0.04899   0.06794   0.07125   0.07247
 Alpha virt. eigenvalues --    0.07444   0.07457   0.07457   0.07481   0.07485
 Alpha virt. eigenvalues --    0.07489   0.07826   0.08003   0.08038   0.08237
 Alpha virt. eigenvalues --    0.08682   0.08735   0.09190   0.09473   0.09574
 Alpha virt. eigenvalues --    0.09574   0.10192   0.10444   0.10526   0.11586
 Alpha virt. eigenvalues --    0.12812   0.13905   0.14583   0.14665   0.15600
 Alpha virt. eigenvalues --    0.27588   0.28478   0.29160   0.29942   0.29942
 Alpha virt. eigenvalues --    0.30504   0.31581   0.31860   0.32480   0.33212
 Alpha virt. eigenvalues --    0.33212   0.33212   0.33213   0.33213   0.33540
 Alpha virt. eigenvalues --    0.33540   0.34186   0.35423   0.35783   0.35897
 Alpha virt. eigenvalues --    0.36250   0.37509   0.37510   0.37780   0.38975
 Alpha virt. eigenvalues --    0.41926   0.41926   0.41928   0.42015   0.42349
 Alpha virt. eigenvalues --    0.43040   0.43224   0.43305   0.43517   0.43517
 Alpha virt. eigenvalues --    0.43584   0.43902   0.43902   0.43982   0.44108
 Alpha virt. eigenvalues --    0.44819   0.45115   0.46133   0.46494   0.46829
 Alpha virt. eigenvalues --    0.46829   0.47065   0.47508   0.47553   0.49777
 Alpha virt. eigenvalues --    0.52033   0.53286   0.58791   0.63093   0.65411
 Alpha virt. eigenvalues --    0.71426   1.98653   2.00957   2.02978   2.07134
 Alpha virt. eigenvalues --    2.11990   2.12388   2.18434   4.41156   4.41418
 Alpha virt. eigenvalues --    4.41917   4.42796   4.42796   4.42798   4.43038
 Alpha virt. eigenvalues --    4.43912   4.43912   4.44297   4.44659   4.44791
 Alpha virt. eigenvalues --    4.44831   4.45255   4.45255   4.46013   4.46207
 Alpha virt. eigenvalues --    4.50692   4.56652   4.57484   4.63222  96.17670
 Alpha virt. eigenvalues --   96.19786  96.22291  96.27462  96.33441  96.34105
 Alpha virt. eigenvalues --   96.41733
  Beta  occ. eigenvalues --  -38.45600 -38.44613 -38.44527 -38.44324 -38.44323
  Beta  occ. eigenvalues --  -38.44108 -38.44096  -2.21225  -2.20379  -2.20362
  Beta  occ. eigenvalues --   -2.20089  -2.20086  -2.19922  -2.19841  -1.14949
  Beta  occ. eigenvalues --   -1.14949  -1.14949  -1.14089  -1.14074  -1.14045
  Beta  occ. eigenvalues --   -1.14038  -1.14012  -1.13936  -1.13802  -1.13759
  Beta  occ. eigenvalues --   -1.13759  -1.13742  -1.13742  -1.13661  -1.13615
  Beta  occ. eigenvalues --   -1.13586  -1.13540  -1.13512  -1.13510  -1.13456
  Beta  occ. eigenvalues --   -0.14896  -0.12907  -0.11558
  Beta virt. eigenvalues --   -0.06822  -0.06234  -0.05767  -0.04744  -0.03071
  Beta virt. eigenvalues --   -0.02452  -0.02296  -0.02296  -0.01851  -0.01140
  Beta virt. eigenvalues --   -0.00940  -0.00754  -0.00098  -0.00098  -0.00098
  Beta virt. eigenvalues --   -0.00034   0.00055   0.00523   0.00539   0.00539
  Beta virt. eigenvalues --    0.00614   0.00762   0.00769   0.00831   0.00846
  Beta virt. eigenvalues --    0.01112   0.01291   0.01292   0.01388   0.01524
  Beta virt. eigenvalues --    0.01578   0.01769   0.01770   0.01850   0.02067
  Beta virt. eigenvalues --    0.02169   0.02215   0.02235   0.02235   0.02250
  Beta virt. eigenvalues --    0.02424   0.02451   0.02546   0.02745   0.02746
  Beta virt. eigenvalues --    0.02942   0.03184   0.03494   0.03803   0.04207
  Beta virt. eigenvalues --    0.04336   0.04859   0.04899   0.06795   0.07125
  Beta virt. eigenvalues --    0.07250   0.07459   0.07485   0.07487   0.07826
  Beta virt. eigenvalues --    0.08036   0.08236   0.08682   0.08735   0.08812
  Beta virt. eigenvalues --    0.08813   0.08820   0.09190   0.09442   0.09475
  Beta virt. eigenvalues --    0.09574   0.09574   0.10192   0.10444   0.10526
  Beta virt. eigenvalues --    0.11586   0.12811   0.13905   0.14583   0.14665
  Beta virt. eigenvalues --    0.15600   0.27588   0.28478   0.29160   0.29942
  Beta virt. eigenvalues --    0.29942   0.30504   0.31581   0.31860   0.32480
  Beta virt. eigenvalues --    0.33540   0.33540   0.34186   0.35310   0.35310
  Beta virt. eigenvalues --    0.35310   0.35310   0.35310   0.35423   0.35783
  Beta virt. eigenvalues --    0.35897   0.36250   0.37509   0.37510   0.37780
  Beta virt. eigenvalues --    0.38975   0.42015   0.42349   0.43040   0.43224
  Beta virt. eigenvalues --    0.43305   0.43420   0.43420   0.43423   0.43517
  Beta virt. eigenvalues --    0.43517   0.43584   0.43902   0.43902   0.43982
  Beta virt. eigenvalues --    0.44108   0.44819   0.45115   0.46133   0.46494
  Beta virt. eigenvalues --    0.46829   0.46829   0.47065   0.47508   0.47553
  Beta virt. eigenvalues --    0.49777   0.52033   0.53286   0.58791   0.63093
  Beta virt. eigenvalues --    0.65411   0.71426   1.99522   2.00957   2.02978
  Beta virt. eigenvalues --    2.07134   2.11990   2.12388   2.18434   4.41156
  Beta virt. eigenvalues --    4.41418   4.41918   4.43038   4.43119   4.43119
  Beta virt. eigenvalues --    4.43120   4.43912   4.43912   4.44297   4.44659
  Beta virt. eigenvalues --    4.44791   4.44831   4.45255   4.45255   4.46013
  Beta virt. eigenvalues --    4.46207   4.50692   4.56652   4.57484   4.63222
  Beta virt. eigenvalues --   96.17939  96.19786  96.22291  96.27462  96.33441
  Beta virt. eigenvalues --   96.34105  96.41733
          Condensed to atoms (all electrons):
               1          2          3          4          5          6
     1  Na  11.000000   0.000000  -0.000000  -0.000000  -0.000000  -0.000000
     2  Na   0.000000  10.663553   0.336420  -0.000000   0.000000   0.000000
     3  Na  -0.000000   0.336420  10.663608  -0.000000  -0.000000  -0.000000
     4  Na  -0.000000  -0.000000  -0.000000  10.813683   0.266174  -0.187372
     5  Na  -0.000000   0.000000  -0.000000   0.266174  10.707864   0.251494
     6  Na  -0.000000   0.000000  -0.000000  -0.187372   0.251494  10.940828
     7  Na  -0.000000  -0.000000   0.000000  -0.093970  -0.132368   0.270776
               7
     1  Na  -0.000000
     2  Na  -0.000000
     3  Na   0.000000
     4  Na  -0.093970
     5  Na  -0.132368
     6  Na   0.270776
     7  Na  10.788158
          Atomic-Atomic Spin Densities.
               1          2          3          4          5          6
     1  Na   1.000000   0.000000  -0.000000  -0.000000  -0.000000  -0.000000
     2  Na   0.000000  -0.000000   0.000000  -0.000000   0.000000   0.000000
     3  Na  -0.000000   0.000000   0.000000   0.000000  -0.000000  -0.000000
     4  Na  -0.000000  -0.000000   0.000000  -0.000031   0.000001   0.000012
     5  Na  -0.000000   0.000000  -0.000000   0.000001   0.000018  -0.000004
     6  Na  -0.000000   0.000000  -0.000000   0.000012  -0.000004  -0.000006
     7  Na   0.000000  -0.000000   0.000000   0.000008  -0.000007  -0.000003
               7
     1  Na   0.000000
     2  Na  -0.000000
     3  Na   0.000000
     4  Na   0.000008
     5  Na  -0.000007
     6  Na  -0.000003
     7  Na   0.000002
 Mulliken charges and spin densities:
               1          2
     1  Na  -0.000000   1.000000
     2  Na   0.000027  -0.000000
     3  Na  -0.000027   0.000000
     4  Na   0.201485  -0.000009
     5  Na  -0.093163   0.000009
     6  Na  -0.275726  -0.000001
     7  Na   0.167404   0.000001
 Sum of Mulliken charges =  -0.00000   1.00000
 Mulliken charges and spin densities with hydrogens summed into heavy atoms:
               1          2
     1  Na  -0.000000   1.000000
     2  Na   0.000027  -0.000000
     3  Na  -0.000027   0.000000
     4  Na   0.201485  -0.000009
     5  Na  -0.093163   0.000009
     6  Na  -0.275726  -0.000001
     7  Na   0.167404   0.000001
 Electronic spatial extent (au):  <R**2>=          71781.0987
 Charge=             -0.0000 electrons
 Dipole moment (field-independent basis, Debye):
    X=              0.1346    Y=              0.7312    Z=             -0.3817  Tot=              0.8357
 Quadrupole moment (field-independent basis, Debye-Ang):
   XX=            -74.0336   YY=            -73.0145   ZZ=            -67.5438
   XY=            -10.2028   XZ=              3.5818   YZ=              7.6104
 Traceless Quadrupole moment (field-independent basis, Debye-Ang):
   XX=             -2.5029   YY=             -1.4839   ZZ=              3.9868
   XY=            -10.2028   XZ=              3.5818   YZ=              7.6104
 Octapole moment (field-independent basis, Debye-Ang**2):
  XXX=            -92.6509  YYY=             15.0698  ZZZ=             25.3704  XYY=            171.1579
  XXY=            -19.3694  XXZ=            -92.5929  XZZ=             75.1628  YZZ=            -41.8976
  YYZ=              7.2073  XYZ=             82.9059
 Hexadecapole moment (field-independent basis, Debye-Ang**3):
 XXXX=         -79106.9315 YYYY=         -40663.9171 ZZZZ=          -1637.2837 XXXY=          -1362.6254
 XXXZ=          -1059.7574 YYYX=           1098.0829 YYYZ=            519.3231 ZZZX=            -93.2357
 ZZZY=           -196.1993 XXYY=         -18345.3552 XXZZ=         -11792.8124 YYZZ=          -6673.2082
 XXYZ=           2476.3881 YYXZ=           1018.7295 ZZXY=            520.9873
 N-N= 1.427750531641D+02 E-N=-3.014398179153D+03  KE= 1.132829151795D+03
                          Isotropic Fermi Contact Couplings
        Atom                 a.u.       MegaHertz       Gauss      10(-4) cm-1
     1  Na(23)             0.79296     938.09914     334.73710     312.91619
     2  Na(23)             0.00000       0.00000       0.00000       0.00000
     3  Na(23)             0.00000       0.00000       0.00000       0.00000
     4  Na(23)            -0.00000      -0.00009      -0.00003      -0.00003
     5  Na(23)             0.00000       0.00003       0.00001       0.00001
     6  Na(23)            -0.00000      -0.00003      -0.00001      -0.00001
     7  Na(23)             0.00000       0.00001       0.00000       0.00000
 --------------------------------------------------------
       Center         ----  Spin Dipole Couplings  ----
                      3XX-RR        3YY-RR        3ZZ-RR
 --------------------------------------------------------
     1   Atom        0.000000     -0.000000      0.000000
     2   Atom        0.000003     -0.000001     -0.000002
     3   Atom        0.000004     -0.000001     -0.000003
     4   Atom       -0.000007      0.000016     -0.000009
     5   Atom       -0.000005      0.000011     -0.000007
     6   Atom       -0.000005      0.000012     -0.000006
     7   Atom       -0.000004      0.000010     -0.000005
 --------------------------------------------------------
                        XY            XZ            YZ
 --------------------------------------------------------
     1   Atom        0.000000      0.000000     -0.000000
     2   Atom       -0.000003     -0.000000      0.000000
     3   Atom       -0.000003      0.000000     -0.000000
     4   Atom       -0.000008     -0.000001      0.000003
     5   Atom       -0.000006     -0.000001      0.000002
     6   Atom       -0.000005      0.000000     -0.000000
     7   Atom       -0.000005      0.000000     -0.000002
 --------------------------------------------------------


 ---------------------------------------------------------------------------------
              Anisotropic Spin Dipole Couplings in Principal Axis System
 ---------------------------------------------------------------------------------

       Atom             a.u.   MegaHertz   Gauss  10(-4) cm-1        Axes

              Baa    -0.0000    -0.000    -0.000    -0.000 -0.2979  0.9214  0.2496
     1 Na(23) Bbb     0.0000     0.000     0.000     0.000  0.8891  0.1727  0.4238
              Bcc     0.0000     0.000     0.000     0.000 -0.3474 -0.3482  0.8707
 
              Baa    -0.0000    -0.000    -0.000    -0.000  0.2596  0.4308  0.8643
     2 Na(23) Bbb    -0.0000    -0.000    -0.000    -0.000  0.3848  0.7747 -0.5017
              Bcc     0.0000     0.001     0.000     0.000  0.8857 -0.4628 -0.0353
 
              Baa    -0.0000    -0.000    -0.000    -0.000  0.1816  0.4326  0.8831
     3 Na(23) Bbb    -0.0000    -0.000    -0.000    -0.000  0.3769  0.7988 -0.4688
              Bcc     0.0000     0.001     0.000     0.000  0.9083 -0.4180  0.0179
 
              Baa    -0.0000    -0.001    -0.000    -0.000  0.9280  0.3188 -0.1931
     4 Na(23) Bbb    -0.0000    -0.001    -0.000    -0.000  0.2173 -0.0419  0.9752
              Bcc     0.0000     0.003     0.001     0.001 -0.3028  0.9469  0.1082
 
              Baa    -0.0000    -0.001    -0.000    -0.000 -0.4671 -0.2241  0.8554
     5 Na(23) Bbb    -0.0000    -0.001    -0.000    -0.000  0.8312  0.2188  0.5112
              Bcc     0.0000     0.002     0.001     0.001 -0.3017  0.9497  0.0840
 
              Baa    -0.0000    -0.001    -0.000    -0.000  0.9680  0.2430 -0.0629
     6 Na(23) Bbb    -0.0000    -0.001    -0.000    -0.000  0.0597  0.0205  0.9980
              Bcc     0.0000     0.002     0.001     0.001 -0.2438  0.9698 -0.0053
 
              Baa    -0.0000    -0.001    -0.000    -0.000  0.3336  0.1991  0.9215
     7 Na(23) Bbb    -0.0000    -0.001    -0.000    -0.000  0.8954  0.2389 -0.3758
              Bcc     0.0000     0.002     0.001     0.001 -0.2949  0.9504 -0.0986
 

 ---------------------------------------------------------------------------------

 No NMR shielding tensors so no spin-rotation constants.
 Leave Link  601 at Tue Nov 21 11:47:26 2023, MaxMem=   104857600 cpu:              18.1 elap:              19.5
 (Enter /home/sekinelabo/g16/l701.exe)
 ... and contract with generalized density number  0.
 Compute integral first derivatives.
 Leave Link  701 at Tue Nov 21 11:47:34 2023, MaxMem=   104857600 cpu:               7.5 elap:               7.5
 (Enter /home/sekinelabo/g16/l702.exe)
 L702 exits ... SP integral derivatives will be done elsewhere.
 Leave Link  702 at Tue Nov 21 11:47:34 2023, MaxMem=   104857600 cpu:               0.6 elap:               0.7
 (Enter /home/sekinelabo/g16/l703.exe)
 Integral derivatives from FoFJK, PRISM(SPDF).
 Compute integral first derivatives, UseDBF=F ICtDFT=           0.
 Calling FoFJK, ICntrl=      2127 FMM=F ISym2X=0 I1Cent= 0 IOpClX= 1 NMat=1 NMatS=1 NMatT=0.
 FoFJK:  IHMeth= 1 ICntrl=    2127 DoSepK=F KAlg= 0 I1Cent=           0 FoldK=F
 IRaf=         0 NMat=       1 IRICut=       1 DoRegI=T DoRafI=F ISym2E= 0 IDoP0=0 IntGTp=1.
 FoFCou: FMM=F IPFlag=           0 FMFlag=      100000 FMFlg1=         800
         NFxFlg=           0 DoJE=F BraDBF=F KetDBF=F FulRan=T
         wScrn=  0.000000 ICntrl=      2127 IOpCl=  1 I1Cent=           0 NGrid=           0
         NMat0=    1 NMatS0=      1 NMatT0=    0 NMatD0=    1 NMtDS0=    0 NMtDT0=    0
 Symmetry not used in FoFCou.
 Leave Link  703 at Tue Nov 21 11:47:55 2023, MaxMem=   104857600 cpu:              23.7 elap:              20.3
 (Enter /home/sekinelabo/g16/l716.exe)
 Dipole        = 5.29572493D-02 2.87662612D-01-1.50157085D-01
 ***** Axes restored to original set *****
 -------------------------------------------------------------------
 Center     Atomic                   Forces (Hartrees/Bohr)
 Number     Number              X              Y              Z
 -------------------------------------------------------------------
      1       11          -0.000000001   -0.000000013   -0.000000001
      2       11          -0.001197471    0.002550479    0.000513192
      3       11           0.001197472   -0.002550472   -0.000513190
      4       11          -0.000616698   -0.001876579   -0.000499250
      5       11           0.004506090    0.001085671    0.002283093
      6       11          -0.007298897    0.000576026    0.001033366
      7       11           0.003409505    0.000214888   -0.002817209
 -------------------------------------------------------------------
 Cartesian Forces:  Max     0.007298897 RMS     0.002405675
 Z-matrix is all fixed cartesians, so copy forces.
 Force constants in Cartesian coordinates: 
                1             2             3             4             5 
      1  0.100000D+01
      2  0.000000D+00  0.100000D+01
      3  0.000000D+00  0.000000D+00  0.100000D+01
      4  0.000000D+00  0.000000D+00  0.000000D+00  0.476239D-02
      5  0.000000D+00  0.000000D+00  0.000000D+00 -0.101370D-01  0.215771D-01
      6  0.000000D+00  0.000000D+00  0.000000D+00 -0.204056D-02  0.434344D-02
      7  0.000000D+00  0.000000D+00  0.000000D+00 -0.476239D-02  0.101370D-01
      8  0.000000D+00  0.000000D+00  0.000000D+00  0.101370D-01 -0.215771D-01
      9  0.000000D+00  0.000000D+00  0.000000D+00  0.204056D-02 -0.434344D-02
     10  0.000000D+00  0.000000D+00  0.000000D+00  0.000000D+00  0.000000D+00
     11  0.000000D+00  0.000000D+00  0.000000D+00  0.000000D+00  0.000000D+00
     12  0.000000D+00  0.000000D+00  0.000000D+00  0.000000D+00  0.000000D+00
     13  0.000000D+00  0.000000D+00  0.000000D+00  0.000000D+00  0.000000D+00
     14  0.000000D+00  0.000000D+00  0.000000D+00  0.000000D+00  0.000000D+00
     15  0.000000D+00  0.000000D+00  0.000000D+00  0.000000D+00  0.000000D+00
     16  0.000000D+00  0.000000D+00  0.000000D+00  0.000000D+00  0.000000D+00
     17  0.000000D+00  0.000000D+00  0.000000D+00  0.000000D+00  0.000000D+00
     18  0.000000D+00  0.000000D+00  0.000000D+00  0.000000D+00  0.000000D+00
     19  0.000000D+00  0.000000D+00  0.000000D+00  0.000000D+00  0.000000D+00
     20  0.000000D+00  0.000000D+00  0.000000D+00  0.000000D+00  0.000000D+00
     21  0.000000D+00  0.000000D+00  0.000000D+00  0.000000D+00  0.000000D+00
                6             7             8             9            10 
      6  0.874330D-03
      7  0.204056D-02  0.476239D-02
      8 -0.434344D-02 -0.101370D-01  0.215771D-01
      9 -0.874330D-03 -0.204056D-02  0.434344D-02  0.874330D-03
     10  0.000000D+00  0.000000D+00  0.000000D+00  0.000000D+00  0.810508D-02
     11  0.000000D+00  0.000000D+00  0.000000D+00  0.000000D+00  0.671282D-02
     12  0.000000D+00  0.000000D+00  0.000000D+00  0.000000D+00  0.189041D-02
     13  0.000000D+00  0.000000D+00  0.000000D+00  0.000000D+00 -0.729025D-02
     14  0.000000D+00  0.000000D+00  0.000000D+00  0.000000D+00 -0.703478D-03
     15  0.000000D+00  0.000000D+00  0.000000D+00  0.000000D+00 -0.272672D-02
     16  0.000000D+00  0.000000D+00  0.000000D+00  0.000000D+00 -0.815462D-03
     17  0.000000D+00  0.000000D+00  0.000000D+00  0.000000D+00 -0.598587D-02
     18  0.000000D+00  0.000000D+00  0.000000D+00  0.000000D+00  0.842301D-03
     19  0.000000D+00  0.000000D+00  0.000000D+00  0.000000D+00  0.000000D+00
     20  0.000000D+00  0.000000D+00  0.000000D+00  0.000000D+00 -0.234689D-04
     21  0.000000D+00  0.000000D+00  0.000000D+00  0.000000D+00 -0.599757D-05
               11            12            13            14            15 
     11  0.241466D-01
     12 -0.198739D-02  0.119792D-02
     13 -0.698395D-02 -0.151012D-02  0.356596D-01
     14 -0.261464D-01  0.478774D-02  0.429221D-03  0.358653D-01
     15  0.226562D-02 -0.158905D-02  0.111757D-01 -0.852781D-02  0.127180D-01
     16  0.271439D-03 -0.378708D-03 -0.267268D-01  0.128925D-02 -0.122484D-01
     17  0.198838D-02 -0.285958D-02  0.608730D-02 -0.100090D-01  0.734316D-02
     18 -0.281156D-03  0.375997D-03 -0.778141D-02  0.490399D-02 -0.154872D-01
     19  0.000000D+00 -0.158656D-05 -0.164256D-02 -0.101500D-02  0.379944D-02
     20  0.114298D-04  0.592249D-04  0.467427D-03  0.290096D-03 -0.108098D-02
     21  0.292094D-05  0.151351D-04 -0.188414D-02 -0.116392D-02  0.435832D-02
               16            17            18            19            20 
     16  0.398656D-01
     17  0.924562D-03  0.919621D-02
     18  0.420596D-02 -0.858304D-02  0.303669D-01
     19 -0.123233D-01 -0.102599D-02  0.273315D-02  0.139652D-01
     20 -0.248526D-02 -0.117557D-02  0.396021D-02  0.204130D-02  0.874047D-03
     21  0.842113D-02  0.409946D-02 -0.152557D-01 -0.653099D-02 -0.293846D-02
               21 
     21  0.108822D-01
 Leave Link  716 at Tue Nov 21 11:47:55 2023, MaxMem=   104857600 cpu:               0.7 elap:               0.5
 (Enter /home/sekinelabo/g16/l103.exe)

 GradGradGradGradGradGradGradGradGradGradGradGradGradGradGradGradGradGrad
 Berny optimization.
 Search for a local minimum.
 Step number   1 out of a maximum of    2
 All quantities printed in internal units (Hartrees-Bohrs-Radians)
 Second derivative matrix not updated -- first step.
 ITU=  0
     Eigenvalues ---   -0.00000  -0.00000   0.00000   0.00000   0.00000
     Eigenvalues ---    0.00026   0.01477   0.02191   0.04615   0.04725
     Eigenvalues ---    0.05443   0.06305   0.07671   0.51812   0.85714
 Eigenvalue     1 is  -2.22D-16 should be greater than     0.000000 Eigenvector:
                          Z4        Z3        Z7        Z5        X3
   1                    0.62795  -0.62470  -0.23752   0.23445  -0.16886
                          X2        Y6        X7        X6        Y4
   1                    0.16076   0.13110  -0.10803   0.07557  -0.06506
 Eigenvalue     2 is  -2.22D-16 should be greater than     0.000000 Eigenvector:
                          Z5        Z2        Y6        Y7        X6
   1                    0.59859  -0.52793  -0.34225   0.23846   0.19767
                          Z7        Z3        X7        Z4        Y3
   1                   -0.19507   0.19187  -0.14523  -0.12634  -0.10499
 Eigenvalue     3 is   2.22D-16 Eigenvector:
                          Z7        Z3        Z4        Z6        X3
   1                    0.58338  -0.56073  -0.34726   0.30245  -0.17636
                          X7        Y6        Z5        Y7        Z2
   1                    0.16788  -0.12401   0.10768   0.08629  -0.08551
 Eigenvalue     4 is   8.88D-16 Eigenvector:
                          X2        X3        Y3        Y2        Y7
   1                    0.59174  -0.55592  -0.27179   0.26807   0.21335
                          Y4        Z4        Z5        Z3        X4
   1                   -0.17128  -0.15231  -0.13247   0.12992   0.12708
 Eigenvalue     5 is   1.55D-15 Eigenvector:
                          Z2        Z4        Z7        Y6        Z5
   1                    0.70020  -0.31628  -0.30408  -0.27569   0.25910
                          Z3        Z6        X4        X7        Y4
   1                   -0.20624  -0.13270  -0.12758  -0.12420   0.11799
 Quadratic step=4.303D+00 exceeds max=3.000D-01 adjusted using Lamda=-4.507D-03.
 Angle between NR and scaled steps=  35.46 degrees.
 Angle between quadratic step and forces=  49.83 degrees.
 Linear search not attempted -- first point.
 B after Tr=     0.000000    0.000000    0.000000
         Rot=    1.000000   -0.000000    0.000000   -0.000000 Ang=   0.00 deg.
 Variable       Old X    -DE/DX   Delta X   Delta X   Delta X     New X
                                 (Linear)    (Quad)   (Total)
    X1       18.56839  -0.00000   0.00000   0.00000   0.00000  18.56839
    Y1       56.40266  -0.00000   0.00000  -0.00000  -0.00000  56.40266
    Z1        2.74900  -0.00000   0.00000   0.00000   0.00000   2.74900
    X2       19.77485  -0.00120   0.00000  -0.02020  -0.02020  19.75465
    Y2        4.04305   0.00255   0.00000   0.04334   0.04334   4.08639
    Z2       55.57307   0.00051   0.00000   0.00868   0.00868  55.58174
    X3       17.23889   0.00120   0.00000   0.02020   0.02020  17.25909
    Y3        9.44096  -0.00255   0.00000  -0.04334  -0.04334   9.39762
    Z3       56.65966  -0.00051   0.00000  -0.00868  -0.00868  56.65098
    X4       12.49676  -0.00062   0.00000   0.06376   0.06376  12.56052
    Y4        9.65520  -0.00188   0.00000  -0.06190  -0.06190   9.59329
    Z4        3.70861  -0.00050   0.00000  -0.09156  -0.09156   3.61705
    X5       10.45238   0.00451   0.00000  -0.00313  -0.00313  10.44925
    Y5        3.92583   0.00109   0.00000   0.04406   0.04406   3.96989
    Z5        4.00420   0.00228   0.00000   0.10611   0.10611   4.11030
    X6        5.08516  -0.00730   0.00000  -0.11916  -0.11916   4.96600
    Y6        4.34631   0.00058   0.00000   0.11705   0.11705   4.46337
    Z6        1.79619   0.00103   0.00000   0.07812   0.07812   1.87432
    X7        0.11542   0.00341   0.00000   0.05853   0.05853   0.17395
    Y7        3.17994   0.00021   0.00000  -0.09921  -0.09921   3.08073
    Z7        5.83935  -0.00282   0.00000  -0.09267  -0.09267   5.74667
         Item               Value     Threshold  Converged?
 Maximum Force            0.007299     0.000450     NO 
 RMS     Force            0.002406     0.000300     NO 
 Maximum Displacement     0.119158     0.001800     NO 
 RMS     Displacement     0.065492     0.001200     NO 
 Predicted change in Energy=-1.270010D-03
 GradGradGradGradGradGradGradGradGradGradGradGradGradGradGradGradGradGrad

 Leave Link  103 at Tue Nov 21 11:47:58 2023, MaxMem=   104857600 cpu:               3.0 elap:               2.1
 (Enter /home/sekinelabo/g16/l9999.exe)
 1\1\GINC-SEKINELABO-XA7R-R37\Force\UB3LYP\6-311+G(d)\Na7(2)\SEKINELABO
 \21-Nov-2023\0\\#P B3LYP/6-311+g(d) force\\DPGEN\\0,2\Na,9.82597,29.84
 7,1.45471\Na,10.4644,2.13949,29.408\Na,9.12243,4.99594,29.983\Na,6.613
 ,5.10931,1.96251\Na,5.53116,2.07746,2.11893\Na,2.69095,2.29997,0.95050
 4\Na,0.06108,1.68275,3.09005\\Version=ES64L-G16RevB.01\State=2-A\HF=-1
 136.088533\S2=0.750009\S2-1=0.\S2A=0.75\RMSD=3.783e-09\RMSF=2.406e-03\
 Dipole=0.2316981,0.2139952,0.0928624\Quadrupole=-1.7423256,5.3872922,-
 3.6449666,-4.8653451,-6.5522913,-3.7554925\PG=C01 [X(Na7)]\\@


 Money is a good servant but a bad master.
                        -- French Proverb
 Job cpu time:       0 days  0 hours  7 minutes 12.5 seconds.
 Elapsed time:       0 days  0 hours  7 minutes 40.0 seconds.
 File lengths (MBytes):  RWF=     46 Int=      0 D2E=      0 Chk=      4 Scr=      1
 Normal termination of Gaussian 16 at Tue Nov 21 11:47:58 2023.
