 Initial command:
 /home/sekinelabo/g16/l1.exe "/home/sekinelabo/g16temp/Gau-19052.inp" -scrdir="/home/sekinelabo/g16temp/"
 Entering Link 1 = /home/sekinelabo/g16/l1.exe PID=     21275.
  
 Copyright (c) 1988-2017, Gaussian, Inc.  All Rights Reserved.
  
 This is part of the Gaussian(R) 16 program.  It is based on
 the Gaussian(R) 09 system (copyright 2009, Gaussian, Inc.),
 the Gaussian(R) 03 system (copyright 2003, Gaussian, Inc.),
 the Gaussian(R) 98 system (copyright 1998, Gaussian, Inc.),
 the Gaussian(R) 94 system (copyright 1995, Gaussian, Inc.),
 the Gaussian 92(TM) system (copyright 1992, Gaussian, Inc.),
 the Gaussian 90(TM) system (copyright 1990, Gaussian, Inc.),
 the Gaussian 88(TM) system (copyright 1988, Gaussian, Inc.),
 the Gaussian 86(TM) system (copyright 1986, Carnegie Mellon
 University), and the Gaussian 82(TM) system (copyright 1983,
 Carnegie Mellon University). Gaussian is a federally registered
 trademark of Gaussian, Inc.
  
 This software contains proprietary and confidential information,
 including trade secrets, belonging to Gaussian, Inc.
  
 This software is provided under written license and may be
 used, copied, transmitted, or stored only in accord with that
 written license.
  
 The following legend is applicable only to US Government
 contracts under FAR:
  
                    RESTRICTED RIGHTS LEGEND
  
 Use, reproduction and disclosure by the US Government is
 subject to restrictions as set forth in subparagraphs (a)
 and (c) of the Commercial Computer Software - Restricted
 Rights clause in FAR 52.227-19.
  
 Gaussian, Inc.
 340 Quinnipiac St., Bldg. 40, Wallingford CT 06492
  
  
 ---------------------------------------------------------------
 Warning -- This program may not be used in any manner that
 competes with the business of Gaussian, Inc. or will provide
 assistance to any competitor of Gaussian, Inc.  The licensee
 of this program is prohibited from giving any competitor of
 Gaussian, Inc. access to this program.  By using this program,
 the user acknowledges that Gaussian, Inc. is engaged in the
 business of creating and licensing software in the field of
 computational chemistry and represents and warrants to the
 licensee that it is not a competitor of Gaussian, Inc. and that
 it will not use this program in any manner prohibited above.
 ---------------------------------------------------------------
  

 Cite this work as:
 Gaussian 16, Revision B.01,
 M. J. Frisch, G. W. Trucks, H. B. Schlegel, G. E. Scuseria, 
 M. A. Robb, J. R. Cheeseman, G. Scalmani, V. Barone, 
 G. A. Petersson, H. Nakatsuji, X. Li, M. Caricato, A. V. Marenich, 
 J. Bloino, B. G. Janesko, R. Gomperts, B. Mennucci, H. P. Hratchian, 
 J. V. Ortiz, A. F. Izmaylov, J. L. Sonnenberg, D. Williams-Young, 
 F. Ding, F. Lipparini, F. Egidi, J. Goings, B. Peng, A. Petrone, 
 T. Henderson, D. Ranasinghe, V. G. Zakrzewski, J. Gao, N. Rega, 
 G. Zheng, W. Liang, M. Hada, M. Ehara, K. Toyota, R. Fukuda, 
 J. Hasegawa, M. Ishida, T. Nakajima, Y. Honda, O. Kitao, H. Nakai, 
 T. Vreven, K. Throssell, J. A. Montgomery, Jr., J. E. Peralta, 
 F. Ogliaro, M. J. Bearpark, J. J. Heyd, E. N. Brothers, K. N. Kudin, 
 V. N. Staroverov, T. A. Keith, R. Kobayashi, J. Normand, 
 K. Raghavachari, A. P. Rendell, J. C. Burant, S. S. Iyengar, 
 J. Tomasi, M. Cossi, J. M. Millam, M. Klene, C. Adamo, R. Cammi, 
 J. W. Ochterski, R. L. Martin, K. Morokuma, O. Farkas, 
 J. B. Foresman, and D. J. Fox, Gaussian, Inc., Wallingford CT, 2016.
 
 ******************************************
 Gaussian 16:  ES64L-G16RevB.01 20-Dec-2017
                 8-Aug-2023 
 ******************************************
 %NProcShared=16
 Will use up to   16 processors via shared memory.
 %mem=12GB
 %Chk=checkpoint.chk
 -------------------------
 #p B3LYP/6-311+g(d) force
 -------------------------
 1/10=7,30=1,38=1/1,3;
 2/12=2,17=6,18=5,40=1/2;
 3/5=4,6=6,7=11,11=2,25=1,30=1,71=1,74=-5/1,2,3;
 4//1;
 5/5=2,38=5/2;
 6/7=2,8=2,9=2,10=2,28=1/1;
 7/29=1/1,2,3,16;
 1/10=7,30=1/3;
 99//99;
 Leave Link    1 at Tue Aug  8 11:07:29 2023, MaxMem=  1610612736 cpu:               0.2 elap:               0.0
 (Enter /home/sekinelabo/g16/l101.exe)
 ----
 Test
 ----
 Symbolic Z-matrix:
 Charge =  0 Multiplicity = 1
 Na                    0.        0.        0. 
 Na                   -0.75304   0.       -2.98345 
 Na                    0.        0.        3.82781 
 Na                   -0.56798  -0.80628   7.09923 
 
 ITRead=  0  0  0  0
 MicOpt= -1 -1 -1 -1
 NAtoms=      4 NQM=        4 NQMF=       0 NMMI=      0 NMMIF=      0
                NMic=       0 NMicF=      0.
                    Isotopes and Nuclear Properties:
 (Nuclear quadrupole moments (NQMom) in fm**2, nuclear magnetic moments (NMagM)
  in nuclear magnetons)

  Atom         1           2           3           4
 IAtWgt=          23          23          23          23
 AtmWgt=  22.9897697  22.9897697  22.9897697  22.9897697
 NucSpn=           3           3           3           3
 AtZEff=  -0.0000000  -0.0000000  -0.0000000  -0.0000000
 NQMom=   10.4000000  10.4000000  10.4000000  10.4000000
 NMagM=    2.2175200   2.2175200   2.2175200   2.2175200
 AtZNuc=  11.0000000  11.0000000  11.0000000  11.0000000
 Leave Link  101 at Tue Aug  8 11:07:29 2023, MaxMem=  1610612736 cpu:               1.6 elap:               0.1
 (Enter /home/sekinelabo/g16/l103.exe)

 GradGradGradGradGradGradGradGradGradGradGradGradGradGradGradGradGradGrad
 Berny optimization.
 Initialization pass.
 Trust Radius=3.00D-01 FncErr=1.00D-07 GrdErr=1.00D-07 EigMax=2.50D+02 EigMin=1.00D-04
 Number of steps in this run=      2 maximum allowed number of steps=      2.
 GradGradGradGradGradGradGradGradGradGradGradGradGradGradGradGradGradGrad

 Leave Link  103 at Tue Aug  8 11:07:29 2023, MaxMem=  1610612736 cpu:               0.2 elap:               0.0
 (Enter /home/sekinelabo/g16/l202.exe)
                          Input orientation:                          
 ---------------------------------------------------------------------
 Center     Atomic      Atomic             Coordinates (Angstroms)
 Number     Number       Type             X           Y           Z
 ---------------------------------------------------------------------
      1         11           0        0.000000    0.000000    0.000000
      2         11           0       -0.753043    0.000000   -2.983452
      3         11           0        0.000000    0.000000    3.827805
      4         11           0       -0.567975   -0.806282    7.099230
 ---------------------------------------------------------------------
                    Distance matrix (angstroms):
                    1          2          3          4
     1  Na   0.000000
     2  Na   3.077021   0.000000
     3  Na   3.827805   6.852759   0.000000
     4  Na   7.167410  10.116562   3.416857   0.000000
 Stoichiometry    Na4
 Framework group  C1[X(Na4)]
 Deg. of freedom     6
 Full point group                 C1      NOp   1
 Largest Abelian subgroup         C1      NOp   1
 Largest concise Abelian subgroup C1      NOp   1
                         Standard orientation:                         
 ---------------------------------------------------------------------
 Center     Atomic      Atomic             Coordinates (Angstroms)
 Number     Number       Type             X           Y           Z
 ---------------------------------------------------------------------
      1         11           0        1.990308    0.336309    0.138023
      2         11           0        4.976630   -0.378980   -0.057694
      3         11           0       -1.827491    0.433577   -0.120905
      4         11           0       -5.139448   -0.390906    0.040576
 ---------------------------------------------------------------------
 Rotational constants (GHZ):          34.5549145           0.3756426           0.3720891
 Leave Link  202 at Tue Aug  8 11:07:29 2023, MaxMem=  1610612736 cpu:               0.0 elap:               0.0
 (Enter /home/sekinelabo/g16/l301.exe)
 Standard basis: 6-311+G(d) (5D, 7F)
 Ernie: Thresh=  0.10000D-02 Tol=  0.10000D-05 Strict=F.
 There are   124 symmetry adapted cartesian basis functions of A   symmetry.
 There are   120 symmetry adapted basis functions of A   symmetry.
   120 basis functions,   200 primitive gaussians,   124 cartesian basis functions
    22 alpha electrons       22 beta electrons
       nuclear repulsion energy        80.8830915443 Hartrees.
 IExCor=  402 DFT=T Ex+Corr=B3LYP ExCW=0 ScaHFX=  0.200000
 ScaDFX=  0.800000  0.720000  1.000000  0.810000 ScalE2=  1.000000  1.000000
 IRadAn=      5 IRanWt=     -1 IRanGd=            0 ICorTp=0 IEmpDi=  4
 NAtoms=    4 NActive=    4 NUniq=    4 SFac= 1.00D+00 NAtFMM=   60 NAOKFM=F Big=F
 Integral buffers will be    131072 words long.
 Raffenetti 2 integral format.
 Two-electron integral symmetry is turned on.
 Leave Link  301 at Tue Aug  8 11:07:29 2023, MaxMem=  1610612736 cpu:               0.4 elap:               0.0
 (Enter /home/sekinelabo/g16/l302.exe)
 NPDir=0 NMtPBC=     1 NCelOv=     1 NCel=       1 NClECP=     1 NCelD=      1
         NCelK=      1 NCelE2=     1 NClLst=     1 CellRange=     0.0.
 One-electron integrals computed using PRISM.
 One-electron integral symmetry used in STVInt
 NBasis=   120 RedAO= T EigKep=  3.46D-06  NBF=   120
 NBsUse=   120 1.00D-06 EigRej= -1.00D+00 NBFU=   120
 Precomputing XC quadrature grid using
 IXCGrd= 4 IRadAn=           5 IRanWt=          -1 IRanGd=           0 AccXCQ= 0.00D+00.
 Generated NRdTot=       0 NPtTot=           0 NUsed=           0 NTot=          32
 NSgBfM=   112   112   112   112   112 MxSgAt=     4 MxSgA2=     4.
 Leave Link  302 at Tue Aug  8 11:07:29 2023, MaxMem=  1610612736 cpu:               1.3 elap:               0.1
 (Enter /home/sekinelabo/g16/l303.exe)
 DipDrv:  MaxL=1.
 Leave Link  303 at Tue Aug  8 11:07:29 2023, MaxMem=  1610612736 cpu:               0.3 elap:               0.0
 (Enter /home/sekinelabo/g16/l401.exe)
 ExpMin= 7.60D-03 ExpMax= 3.62D+04 ExpMxC= 1.21D+03 IAcc=3 IRadAn=         5 AccDes= 0.00D+00
 Harris functional with IExCor=  402 and IRadAn=       5 diagonalized for initial guess.
 HarFok:  IExCor=  402 AccDes= 0.00D+00 IRadAn=         5 IDoV= 1 UseB2=F ITyADJ=14
 ICtDFT=  3500011 ScaDFX=  1.000000  1.000000  1.000000  1.000000
 FoFCou: FMM=F IPFlag=           0 FMFlag=      100000 FMFlg1=           0
         NFxFlg=           0 DoJE=T BraDBF=F KetDBF=T FulRan=T
         wScrn=  0.000000 ICntrl=       500 IOpCl=  0 I1Cent=   200000004 NGrid=           0
         NMat0=    1 NMatS0=      1 NMatT0=    0 NMatD0=    1 NMtDS0=    0 NMtDT0=    0
 Petite list used in FoFCou.
 Harris En= -649.074878772922    
 JPrj=0 DoOrth=F DoCkMO=F.
 Leave Link  401 at Tue Aug  8 11:07:29 2023, MaxMem=  1610612736 cpu:               2.0 elap:               0.1
 (Enter /home/sekinelabo/g16/l502.exe)
 Keep R1 ints in memory in canonical form, NReq=41581754.
 FoFCou: FMM=F IPFlag=           0 FMFlag=           0 FMFlg1=           0
         NFxFlg=           0 DoJE=F BraDBF=F KetDBF=F FulRan=T
         wScrn=  0.000000 ICntrl=       600 IOpCl=  0 I1Cent=           0 NGrid=           0
         NMat0=    1 NMatS0=   7260 NMatT0=    0 NMatD0=    1 NMtDS0=    0 NMtDT0=    0
 Symmetry not used in FoFCou.
 Two-electron integral symmetry not used.
 Closed shell SCF:
 Using DIIS extrapolation, IDIIS=  1040.
 NGot=  1610612736 LenX=  1584221388 LenY=  1584205571
 Requested convergence on RMS density matrix=1.00D-08 within 128 cycles.
 Requested convergence on MAX density matrix=1.00D-06.
 Requested convergence on             energy=1.00D-06.
 No special actions if energy rises.

 Cycle   1  Pass 1  IDiag  1:
 E= -649.189333963749    
 DIIS: error= 1.28D-02 at cycle   1 NSaved=   1.
 NSaved= 1 IEnMin= 1 EnMin= -649.189333963749     IErMin= 1 ErrMin= 1.28D-02
 ErrMax= 1.28D-02  0.00D+00 EMaxC= 1.00D-01 BMatC= 2.60D-02 BMatP= 2.60D-02
 IDIUse=3 WtCom= 8.72D-01 WtEn= 1.28D-01
 Coeff-Com:  0.100D+01
 Coeff-En:   0.100D+01
 Coeff:      0.100D+01
 Gap=     0.047 Goal=   None    Shift=    0.000
 GapD=    0.047 DampG=0.250 DampE=0.500 DampFc=0.2500 IDamp=-1.
 Damping current iteration by 2.50D-01
 RMSDP=1.24D-02 MaxDP=4.08D-01              OVMax= 1.06D-01

 Cycle   2  Pass 1  IDiag  1:
 E= -649.193521832455     Delta-E=       -0.004187868706 Rises=F Damp=T
 DIIS: error= 8.97D-03 at cycle   2 NSaved=   2.
 NSaved= 2 IEnMin= 2 EnMin= -649.193521832455     IErMin= 2 ErrMin= 8.97D-03
 ErrMax= 8.97D-03  0.00D+00 EMaxC= 1.00D-01 BMatC= 1.01D-02 BMatP= 2.60D-02
 IDIUse=3 WtCom= 9.10D-01 WtEn= 8.97D-02
 Coeff-Com: -0.131D+01 0.231D+01
 Coeff-En:   0.000D+00 0.100D+01
 Coeff:     -0.119D+01 0.219D+01
 Gap=     0.048 Goal=   None    Shift=    0.000
 RMSDP=7.92D-03 MaxDP=2.53D-01 DE=-4.19D-03 OVMax= 6.57D-02

 Cycle   3  Pass 1  IDiag  1:
 E= -649.201925054948     Delta-E=       -0.008403222493 Rises=F Damp=F
 DIIS: error= 1.41D-03 at cycle   3 NSaved=   3.
 NSaved= 3 IEnMin= 3 EnMin= -649.201925054948     IErMin= 3 ErrMin= 1.41D-03
 ErrMax= 1.41D-03  0.00D+00 EMaxC= 1.00D-01 BMatC= 7.73D-05 BMatP= 1.01D-02
 IDIUse=3 WtCom= 9.86D-01 WtEn= 1.41D-02
 Coeff-Com: -0.364D-01 0.744D-01 0.962D+00
 Coeff-En:   0.000D+00 0.000D+00 0.100D+01
 Coeff:     -0.359D-01 0.734D-01 0.963D+00
 Gap=     0.050 Goal=   None    Shift=    0.000
 RMSDP=1.43D-03 MaxDP=4.51D-02 DE=-8.40D-03 OVMax= 6.05D-02

 Cycle   4  Pass 1  IDiag  1:
 E= -649.201430355159     Delta-E=        0.000494699789 Rises=F Damp=F
 DIIS: error= 2.10D-03 at cycle   4 NSaved=   4.
 NSaved= 4 IEnMin= 3 EnMin= -649.201925054948     IErMin= 3 ErrMin= 1.41D-03
 ErrMax= 2.10D-03  0.00D+00 EMaxC= 1.00D-01 BMatC= 1.66D-04 BMatP= 7.73D-05
 IDIUse=3 WtCom= 1.79D-01 WtEn= 8.21D-01
 Coeff-Com:  0.139D-01-0.171D-01 0.599D+00 0.404D+00
 Coeff-En:   0.000D+00 0.000D+00 0.676D+00 0.324D+00
 Coeff:      0.249D-02-0.306D-02 0.662D+00 0.338D+00
 Gap=     0.049 Goal=   None    Shift=    0.000
 RMSDP=7.46D-04 MaxDP=2.65D-02 DE= 4.95D-04 OVMax= 2.97D-02

 Cycle   5  Pass 1  IDiag  1:
 E= -649.202257849208     Delta-E=       -0.000827494049 Rises=F Damp=F
 DIIS: error= 2.96D-04 at cycle   5 NSaved=   5.
 NSaved= 5 IEnMin= 5 EnMin= -649.202257849208     IErMin= 5 ErrMin= 2.96D-04
 ErrMax= 2.96D-04  0.00D+00 EMaxC= 1.00D-01 BMatC= 3.45D-06 BMatP= 7.73D-05
 IDIUse=3 WtCom= 9.97D-01 WtEn= 2.96D-03
 Coeff-Com: -0.450D-02 0.559D-02 0.161D+00-0.892D-02 0.847D+00
 Coeff-En:   0.000D+00 0.000D+00 0.000D+00 0.000D+00 0.100D+01
 Coeff:     -0.448D-02 0.557D-02 0.160D+00-0.889D-02 0.847D+00
 Gap=     0.049 Goal=   None    Shift=    0.000
 RMSDP=1.91D-04 MaxDP=5.49D-03 DE=-8.27D-04 OVMax= 5.07D-03

 Cycle   6  Pass 1  IDiag  1:
 E= -649.202273253966     Delta-E=       -0.000015404758 Rises=F Damp=F
 DIIS: error= 1.03D-05 at cycle   6 NSaved=   6.
 NSaved= 6 IEnMin= 6 EnMin= -649.202273253966     IErMin= 6 ErrMin= 1.03D-05
 ErrMax= 1.03D-05  0.00D+00 EMaxC= 1.00D-01 BMatC= 1.01D-08 BMatP= 3.45D-06
 IDIUse=1 WtCom= 1.00D+00 WtEn= 0.00D+00
 Coeff-Com: -0.203D-02 0.259D-02 0.583D-02-0.756D-02 0.972D-01 0.904D+00
 Coeff:     -0.203D-02 0.259D-02 0.583D-02-0.756D-02 0.972D-01 0.904D+00
 Gap=     0.049 Goal=   None    Shift=    0.000
 RMSDP=1.55D-05 MaxDP=4.04D-04 DE=-1.54D-05 OVMax= 4.76D-04

 Cycle   7  Pass 1  IDiag  1:
 E= -649.202273275660     Delta-E=       -0.000000021693 Rises=F Damp=F
 DIIS: error= 6.57D-06 at cycle   7 NSaved=   7.
 NSaved= 7 IEnMin= 7 EnMin= -649.202273275660     IErMin= 7 ErrMin= 6.57D-06
 ErrMax= 6.57D-06  0.00D+00 EMaxC= 1.00D-01 BMatC= 2.47D-09 BMatP= 1.01D-08
 IDIUse=1 WtCom= 1.00D+00 WtEn= 0.00D+00
 Coeff-Com: -0.610D-03 0.781D-03-0.418D-02-0.397D-02 0.546D-02 0.364D+00
 Coeff-Com:  0.639D+00
 Coeff:     -0.610D-03 0.781D-03-0.418D-02-0.397D-02 0.546D-02 0.364D+00
 Coeff:      0.639D+00
 Gap=     0.049 Goal=   None    Shift=    0.000
 RMSDP=5.78D-06 MaxDP=1.92D-04 DE=-2.17D-08 OVMax= 2.99D-04

 Cycle   8  Pass 1  IDiag  1:
 E= -649.202273293520     Delta-E=       -0.000000017861 Rises=F Damp=F
 DIIS: error= 2.18D-06 at cycle   8 NSaved=   8.
 NSaved= 8 IEnMin= 8 EnMin= -649.202273293520     IErMin= 8 ErrMin= 2.18D-06
 ErrMax= 2.18D-06  0.00D+00 EMaxC= 1.00D-01 BMatC= 2.81D-10 BMatP= 2.47D-09
 IDIUse=1 WtCom= 1.00D+00 WtEn= 0.00D+00
 Coeff-Com: -0.633D-04 0.765D-04-0.236D-02-0.740D-03-0.689D-02 0.107D+00
 Coeff-Com:  0.289D+00 0.614D+00
 Coeff:     -0.633D-04 0.765D-04-0.236D-02-0.740D-03-0.689D-02 0.107D+00
 Coeff:      0.289D+00 0.614D+00
 Gap=     0.049 Goal=   None    Shift=    0.000
 RMSDP=2.61D-06 MaxDP=6.15D-05 DE=-1.79D-08 OVMax= 8.91D-05

 Cycle   9  Pass 1  IDiag  1:
 E= -649.202273294976     Delta-E=       -0.000000001456 Rises=F Damp=F
 DIIS: error= 7.92D-07 at cycle   9 NSaved=   9.
 NSaved= 9 IEnMin= 9 EnMin= -649.202273294976     IErMin= 9 ErrMin= 7.92D-07
 ErrMax= 7.92D-07  0.00D+00 EMaxC= 1.00D-01 BMatC= 5.74D-11 BMatP= 2.81D-10
 IDIUse=1 WtCom= 1.00D+00 WtEn= 0.00D+00
 Coeff-Com:  0.125D-03-0.165D-03-0.551D-03 0.522D-03-0.561D-02-0.224D-01
 Coeff-Com:  0.360D-01 0.322D+00 0.670D+00
 Coeff:      0.125D-03-0.165D-03-0.551D-03 0.522D-03-0.561D-02-0.224D-01
 Coeff:      0.360D-01 0.322D+00 0.670D+00
 Gap=     0.049 Goal=   None    Shift=    0.000
 RMSDP=7.07D-07 MaxDP=1.71D-05 DE=-1.46D-09 OVMax= 1.76D-05

 Cycle  10  Pass 1  IDiag  1:
 E= -649.202273295184     Delta-E=       -0.000000000208 Rises=F Damp=F
 DIIS: error= 6.52D-08 at cycle  10 NSaved=  10.
 NSaved=10 IEnMin=10 EnMin= -649.202273295184     IErMin=10 ErrMin= 6.52D-08
 ErrMax= 6.52D-08  0.00D+00 EMaxC= 1.00D-01 BMatC= 8.27D-13 BMatP= 5.74D-11
 IDIUse=1 WtCom= 1.00D+00 WtEn= 0.00D+00
 Coeff-Com:  0.417D-04-0.545D-04-0.540D-04 0.216D-03-0.143D-02-0.124D-01
 Coeff-Com: -0.526D-03 0.813D-01 0.186D+00 0.747D+00
 Coeff:      0.417D-04-0.545D-04-0.540D-04 0.216D-03-0.143D-02-0.124D-01
 Coeff:     -0.526D-03 0.813D-01 0.186D+00 0.747D+00
 Gap=     0.049 Goal=   None    Shift=    0.000
 RMSDP=2.01D-07 MaxDP=4.75D-06 DE=-2.08D-10 OVMax= 1.50D-06

 Cycle  11  Pass 1  IDiag  1:
 E= -649.202273295184     Delta-E=        0.000000000001 Rises=F Damp=F
 DIIS: error= 9.46D-09 at cycle  11 NSaved=  11.
 NSaved=11 IEnMin=10 EnMin= -649.202273295184     IErMin=11 ErrMin= 9.46D-09
 ErrMax= 9.46D-09  0.00D+00 EMaxC= 1.00D-01 BMatC= 2.67D-14 BMatP= 8.27D-13
 IDIUse=1 WtCom= 1.00D+00 WtEn= 0.00D+00
 Coeff-Com: -0.576D-05 0.764D-05 0.213D-04-0.168D-04 0.238D-03 0.255D-03
 Coeff-Com: -0.228D-02-0.929D-02-0.159D-01 0.867D-01 0.940D+00
 Coeff:     -0.576D-05 0.764D-05 0.213D-04-0.168D-04 0.238D-03 0.255D-03
 Coeff:     -0.228D-02-0.929D-02-0.159D-01 0.867D-01 0.940D+00
 Gap=     0.049 Goal=   None    Shift=    0.000
 RMSDP=5.47D-08 MaxDP=1.09D-06 DE= 5.68D-13 OVMax= 2.91D-07

 Cycle  12  Pass 1  IDiag  1:
 E= -649.202273295186     Delta-E=       -0.000000000003 Rises=F Damp=F
 DIIS: error= 2.31D-09 at cycle  12 NSaved=  12.
 NSaved=12 IEnMin=12 EnMin= -649.202273295186     IErMin=12 ErrMin= 2.31D-09
 ErrMax= 2.31D-09  0.00D+00 EMaxC= 1.00D-01 BMatC= 1.61D-15 BMatP= 2.67D-14
 IDIUse=1 WtCom= 1.00D+00 WtEn= 0.00D+00
 Coeff-Com: -0.245D-05 0.323D-05 0.661D-05-0.969D-05 0.101D-03 0.304D-03
 Coeff-Com: -0.631D-03-0.436D-02-0.744D-02-0.551D-02 0.269D+00 0.748D+00
 Coeff:     -0.245D-05 0.323D-05 0.661D-05-0.969D-05 0.101D-03 0.304D-03
 Coeff:     -0.631D-03-0.436D-02-0.744D-02-0.551D-02 0.269D+00 0.748D+00
 Gap=     0.049 Goal=   None    Shift=    0.000
 RMSDP=8.81D-09 MaxDP=2.35D-07 DE=-2.84D-12 OVMax= 1.36D-07

 SCF Done:  E(RB3LYP) =  -649.202273295     A.U. after   12 cycles
            NFock= 12  Conv=0.88D-08     -V/T= 2.0029
 KE= 6.473229890557D+02 PE=-1.721085180297D+03 EE= 3.436768264018D+02
 Leave Link  502 at Tue Aug  8 11:07:30 2023, MaxMem=  1610612736 cpu:              17.9 elap:               1.3
 (Enter /home/sekinelabo/g16/l601.exe)
 Copying SCF densities to generalized density rwf, IOpCl= 0 IROHF=0.

 **********************************************************************

            Population analysis using the SCF Density.

 **********************************************************************

 Orbital symmetries:
       Occupied  (A) (A) (A) (A) (A) (A) (A) (A) (A) (A) (A) (A)
                 (A) (A) (A) (A) (A) (A) (A) (A) (A) (A)
       Virtual   (A) (A) (A) (A) (A) (A) (A) (A) (A) (A) (A) (A)
                 (A) (A) (A) (A) (A) (A) (A) (A) (A) (A) (A) (A)
                 (A) (A) (A) (A) (A) (A) (A) (A) (A) (A) (A) (A)
                 (A) (A) (A) (A) (A) (A) (A) (A) (A) (A) (A) (A)
                 (A) (A) (A) (A) (A) (A) (A) (A) (A) (A) (A) (A)
                 (A) (A) (A) (A) (A) (A) (A) (A) (A) (A) (A) (A)
                 (A) (A) (A) (A) (A) (A) (A) (A) (A) (A) (A) (A)
                 (A) (A) (A) (A) (A) (A) (A) (A) (A) (A) (A) (A)
                 (A) (A)
 The electronic state is 1-A.
 Alpha  occ. eigenvalues --  -38.45065 -38.44846 -38.44333 -38.44090  -2.20806
 Alpha  occ. eigenvalues --   -2.20627  -2.20087  -2.19884  -1.14474  -1.14474
 Alpha  occ. eigenvalues --   -1.14438  -1.14305  -1.14280  -1.14280  -1.13765
 Alpha  occ. eigenvalues --   -1.13765  -1.13712  -1.13548  -1.13548  -1.13529
 Alpha  occ. eigenvalues --   -0.14167  -0.12477
 Alpha virt. eigenvalues --   -0.07586  -0.04095  -0.02936  -0.02930  -0.01922
 Alpha virt. eigenvalues --   -0.01864  -0.01279   0.00134   0.00195   0.00307
 Alpha virt. eigenvalues --    0.00321   0.01069   0.01261   0.01295   0.01318
 Alpha virt. eigenvalues --    0.01385   0.01401   0.02312   0.02376   0.02496
 Alpha virt. eigenvalues --    0.02513   0.02770   0.03017   0.03396   0.03830
 Alpha virt. eigenvalues --    0.04007   0.04324   0.04461   0.05407   0.05463
 Alpha virt. eigenvalues --    0.07161   0.07276   0.07465   0.07838   0.08155
 Alpha virt. eigenvalues --    0.08390   0.08511   0.09313   0.09466   0.10547
 Alpha virt. eigenvalues --    0.10746   0.12064   0.13624   0.15020   0.15792
 Alpha virt. eigenvalues --    0.18183   0.28030   0.28122   0.31518   0.31947
 Alpha virt. eigenvalues --    0.32413   0.32890   0.32956   0.34028   0.34044
 Alpha virt. eigenvalues --    0.36560   0.36644   0.37982   0.38086   0.38737
 Alpha virt. eigenvalues --    0.41352   0.42939   0.43144   0.43153   0.43363
 Alpha virt. eigenvalues --    0.43693   0.44343   0.44764   0.44888   0.45204
 Alpha virt. eigenvalues --    0.45513   0.45778   0.47297   0.49409   0.49742
 Alpha virt. eigenvalues --    0.51558   0.60842   0.70850   1.99999   2.08471
 Alpha virt. eigenvalues --    2.12070   2.15669   4.42235   4.43568   4.43584
 Alpha virt. eigenvalues --    4.43829   4.43877   4.44153   4.45234   4.45390
 Alpha virt. eigenvalues --    4.46187   4.46472   4.52906   4.63289  96.18714
 Alpha virt. eigenvalues --   96.29182  96.33763  96.37772
          Condensed to atoms (all electrons):
               1          2          3          4
     1  Na  12.071695   0.059218  -0.105608  -0.429053
     2  Na   0.059218  10.927026  -0.577011  -0.002242
     3  Na  -0.105608  -0.577011  11.828092   0.256050
     4  Na  -0.429053  -0.002242   0.256050  10.770480
 Mulliken charges:
               1
     1  Na  -0.596252
     2  Na   0.593009
     3  Na  -0.401523
     4  Na   0.404765
 Sum of Mulliken charges =  -0.00000
 Mulliken charges with hydrogens summed into heavy atoms:
               1
     1  Na  -0.596252
     2  Na   0.593009
     3  Na  -0.401523
     4  Na   0.404765
 Electronic spatial extent (au):  <R**2>=           2399.1343
 Charge=             -0.0000 electrons
 Dipole moment (field-independent basis, Debye):
    X=              0.0140    Y=             -0.3134    Z=             -0.0125  Tot=              0.3140
 Quadrupole moment (field-independent basis, Debye-Ang):
   XX=            -16.3841   YY=            -42.9690   ZZ=            -44.0510
   XY=              0.2187   XZ=             -0.9535   YZ=              0.0099
 Traceless Quadrupole moment (field-independent basis, Debye-Ang):
   XX=             18.0839   YY=             -8.5010   ZZ=             -9.5830
   XY=              0.2187   XZ=             -0.9535   YZ=              0.0099
 Octapole moment (field-independent basis, Debye-Ang**2):
  XXX=             -6.6525  YYY=             -0.8319  ZZZ=             -0.0210  XYY=              0.7825
  XXY=            -37.4102  XXZ=             -0.9090  XZZ=              1.0215  YZZ=             -0.2339
  YYZ=             -0.0339  XYZ=              0.8766
 Hexadecapole moment (field-independent basis, Debye-Ang**3):
 XXXX=          -2159.1142 YYYY=           -210.4435 ZZZZ=           -183.9391 XXXY=             10.7416
 XXXZ=            -41.2125 YYYX=              0.7958 YYYZ=             -0.0047 ZZZX=             -4.3224
 ZZZY=              0.0049 XXYY=           -657.3375 XXZZ=           -671.6965 YYZZ=            -65.7533
 XXYZ=              0.5509 YYXZ=             -1.3925 ZZXY=              0.3245
 N-N= 8.088309154432D+01 E-N=-1.721085180177D+03  KE= 6.473229890557D+02
 No NMR shielding tensors so no spin-rotation constants.
 Leave Link  601 at Tue Aug  8 11:07:30 2023, MaxMem=  1610612736 cpu:               1.1 elap:               0.1
 (Enter /home/sekinelabo/g16/l701.exe)
 ... and contract with generalized density number  0.
 Compute integral first derivatives.
 Leave Link  701 at Tue Aug  8 11:07:31 2023, MaxMem=  1610612736 cpu:               1.4 elap:               0.1
 (Enter /home/sekinelabo/g16/l702.exe)
 L702 exits ... SP integral derivatives will be done elsewhere.
 Leave Link  702 at Tue Aug  8 11:07:31 2023, MaxMem=  1610612736 cpu:               0.3 elap:               0.0
 (Enter /home/sekinelabo/g16/l703.exe)
 Integral derivatives from FoFJK, PRISM(SPDF).
 Compute integral first derivatives, UseDBF=F ICtDFT=           0.
 Calling FoFJK, ICntrl=      2127 FMM=F ISym2X=0 I1Cent= 0 IOpClX= 0 NMat=1 NMatS=1 NMatT=0.
 FoFJK:  IHMeth= 1 ICntrl=    2127 DoSepK=F KAlg= 0 I1Cent=           0 FoldK=F
 IRaf=         0 NMat=       1 IRICut=       1 DoRegI=T DoRafI=F ISym2E= 0 IDoP0=0 IntGTp=1.
 FoFCou: FMM=F IPFlag=           0 FMFlag=      100000 FMFlg1=         800
         NFxFlg=           0 DoJE=F BraDBF=F KetDBF=F FulRan=T
         wScrn=  0.000000 ICntrl=      2127 IOpCl=  0 I1Cent=           0 NGrid=           0
         NMat0=    1 NMatS0=      1 NMatT0=    0 NMatD0=    1 NMtDS0=    0 NMtDT0=    0
 Symmetry not used in FoFCou.
 Leave Link  703 at Tue Aug  8 11:07:31 2023, MaxMem=  1610612736 cpu:               5.7 elap:               0.4
 (Enter /home/sekinelabo/g16/l716.exe)
 Dipole        = 5.52211728D-03-1.23314386D-01-4.92437499D-03
 ***** Axes restored to original set *****
 -------------------------------------------------------------------
 Center     Atomic                   Forces (Hartrees/Bohr)
 Number     Number              X              Y              Z
 -------------------------------------------------------------------
      1       11           0.000054811   -0.000055941    0.001109073
      2       11          -0.000041244    0.000036519   -0.000275179
      3       11          -0.000829668   -0.001090668    0.003626811
      4       11           0.000816101    0.001110091   -0.004460705
 -------------------------------------------------------------------
 Cartesian Forces:  Max     0.004460705 RMS     0.001782854
 Z-matrix is all fixed cartesians, so copy forces.
 Force constants in Cartesian coordinates: 
                1             2             3             4             5 
      1  0.271376D-01
      2  0.943619D-03  0.846896D-02
      3  0.461380D-02  0.000000D+00  0.440172D-01
      4 -0.146888D-01  0.000000D+00 -0.606842D-02  0.892574D-02
      5  0.605915D-03 -0.244784D-02  0.000000D+00  0.000000D+00  0.113577D-02
      6 -0.461380D-02  0.000000D+00 -0.314363D-01  0.606842D-02  0.000000D+00
      7 -0.145267D-01 -0.182843D-02  0.145462D-02  0.576303D-02 -0.131488D-02
      8 -0.369589D-02 -0.105226D-01  0.000000D+00  0.000000D+00  0.181149D-02
      9 -0.889751D-03 -0.126307D-02 -0.125809D-01  0.000000D+00  0.000000D+00
     10  0.207788D-02  0.884813D-03  0.000000D+00  0.000000D+00  0.708965D-03
     11  0.214636D-02  0.450149D-02  0.000000D+00  0.000000D+00 -0.499421D-03
     12  0.889751D-03  0.126307D-02  0.000000D+00  0.000000D+00  0.000000D+00
                6             7             8             9            10 
      6  0.314363D-01
      7 -0.145462D-02  0.136739D-01
      8  0.000000D+00  0.837038D-02  0.177486D-01
      9  0.000000D+00 -0.142020D-02 -0.201607D-02  0.318821D-01
     10  0.000000D+00 -0.491020D-02 -0.467448D-02  0.230995D-02  0.283232D-02
     11  0.000000D+00 -0.522706D-02 -0.903751D-02  0.327914D-02  0.308071D-02
     12  0.000000D+00  0.142020D-02  0.201607D-02 -0.193012D-01 -0.230995D-02
               11            12 
     11  0.503544D-02
     12 -0.327914D-02  0.193012D-01
 Leave Link  716 at Tue Aug  8 11:07:31 2023, MaxMem=  1610612736 cpu:               0.3 elap:               0.0
 (Enter /home/sekinelabo/g16/l103.exe)

 GradGradGradGradGradGradGradGradGradGradGradGradGradGradGradGradGradGrad
 Berny optimization.
 Search for a local minimum.
 Step number   1 out of a maximum of    2
 All quantities printed in internal units (Hartrees-Bohrs-Radians)
 Second derivative matrix not updated -- first step.
 The second derivative matrix:
                          X1        Y1        Z1        X2        Y2
           X1           0.02714
           Y1           0.00094   0.00847
           Z1           0.00461  -0.00000   0.04402
           X2          -0.01469   0.00000  -0.00607   0.00893
           Y2           0.00061  -0.00245   0.00000  -0.00000   0.00114
           Z2          -0.00461   0.00000  -0.03144   0.00607  -0.00000
           X3          -0.01453  -0.00183   0.00145   0.00576  -0.00131
           Y3          -0.00370  -0.01052   0.00000  -0.00000   0.00181
           Z3          -0.00089  -0.00126  -0.01258   0.00000   0.00000
           X4           0.00208   0.00088  -0.00000  -0.00000   0.00071
           Y4           0.00215   0.00450  -0.00000   0.00000  -0.00050
           Z4           0.00089   0.00126  -0.00000  -0.00000   0.00000
                          Z2        X3        Y3        Z3        X4
           Z2           0.03144
           X3          -0.00145   0.01367
           Y3           0.00000   0.00837   0.01775
           Z3          -0.00000  -0.00142  -0.00202   0.03188
           X4          -0.00000  -0.00491  -0.00467   0.00231   0.00283
           Y4           0.00000  -0.00523  -0.00904   0.00328   0.00308
           Z4           0.00000   0.00142   0.00202  -0.01930  -0.00231
                          Y4        Z4
           Y4           0.00504
           Z4          -0.00328   0.01930
 ITU=  0
     Eigenvalues ---    0.00652   0.01018   0.02738   0.04214   0.05013
     Eigenvalues ---    0.07525
 Angle between quadratic step and forces=  39.40 degrees.
 Linear search not attempted -- first point.
 B after Tr=     0.000000    0.000000    0.000000
         Rot=    1.000000   -0.000000    0.000000   -0.000000 Ang=   0.00 deg.
 Variable       Old X    -DE/DX   Delta X   Delta X   Delta X     New X
                                 (Linear)    (Quad)   (Total)
    X1        0.00000   0.00005   0.00000  -0.00673  -0.00673  -0.00673
    Y1        0.00000  -0.00006   0.00000  -0.01569  -0.01569  -0.01569
    Z1       -0.00000   0.00111   0.00000   0.09084   0.09084   0.09084
    X2       -1.42304  -0.00004   0.00000   0.00690   0.00690  -1.41614
    Y2        0.00000   0.00004   0.00000   0.00055   0.00055   0.00055
    Z2       -5.63791  -0.00028   0.00000   0.07873   0.07873  -5.55917
    X3       -0.00000  -0.00083   0.00000  -0.02225  -0.02225  -0.02225
    Y3       -0.00000  -0.00109   0.00000  -0.01547  -0.01547  -0.01547
    Z3        7.23350   0.00363   0.00000   0.02455   0.02455   7.25806
    X4       -1.07332   0.00082   0.00000   0.02208   0.02208  -1.05124
    Y4       -1.52365   0.00111   0.00000   0.03062   0.03062  -1.49303
    Z4       13.41560  -0.00446   0.00000  -0.19412  -0.19412  13.22148
         Item               Value     Threshold  Converged?
 Maximum Force            0.004461     0.000450     NO 
 RMS     Force            0.001783     0.000300     NO 
 Maximum Displacement     0.194122     0.001800     NO 
 RMS     Displacement     0.067845     0.001200     NO 
 Predicted change in Energy=-5.608194D-04
 GradGradGradGradGradGradGradGradGradGradGradGradGradGradGradGradGradGrad

 Leave Link  103 at Tue Aug  8 11:07:31 2023, MaxMem=  1610612736 cpu:               0.2 elap:               0.0
 (Enter /home/sekinelabo/g16/l9999.exe)
 1\1\GINC-SEKINELABO-XA7R-R37\Force\RB3LYP\6-311+G(d)\Na4\SEKINELABO\08
 -Aug-2023\0\\#p B3LYP/6-311+g(d) force\\Test\\0,1\Na,0.,0.,0.\Na,-0.75
 30427111,0.,-2.9834522096\Na,0.,0.,3.8278052136\Na,-0.5679752036,-0.80
 62821847,7.0992304112\\Version=ES64L-G16RevB.01\State=1-A\HF=-649.2022
 733\RMSD=8.805e-09\RMSF=1.783e-03\Dipole=-0.1073951,-0.0604851,-0.0083
 081\Quadrupole=-6.5271662,-6.7069724,13.2341386,0.3099867,0.5425123,-2
 .1237821\PG=C01 [X(Na4)]\\@


 Any fool can criticize, condemn, and complain -- and most do.
 -- Dale Carnegie
 Job cpu time:       0 days  0 hours  0 minutes 33.0 seconds.
 Elapsed time:       0 days  0 hours  0 minutes  2.3 seconds.
 File lengths (MBytes):  RWF=     10 Int=      0 D2E=      0 Chk=      2 Scr=      1
 Normal termination of Gaussian 16 at Tue Aug  8 11:07:31 2023.
