 Initial command:
 /home/masato/g16/l1.exe "/home/masato/g16temp/Gau-38813.inp" -scrdir="/home/masato/g16temp/"
 Entering Link 1 = /home/masato/g16/l1.exe PID=     39101.
  
 Copyright (c) 1988-2017, Gaussian, Inc.  All Rights Reserved.
  
 This is part of the Gaussian(R) 16 program.  It is based on
 the Gaussian(R) 09 system (copyright 2009, Gaussian, Inc.),
 the Gaussian(R) 03 system (copyright 2003, Gaussian, Inc.),
 the Gaussian(R) 98 system (copyright 1998, Gaussian, Inc.),
 the Gaussian(R) 94 system (copyright 1995, Gaussian, Inc.),
 the Gaussian 92(TM) system (copyright 1992, Gaussian, Inc.),
 the Gaussian 90(TM) system (copyright 1990, Gaussian, Inc.),
 the Gaussian 88(TM) system (copyright 1988, Gaussian, Inc.),
 the Gaussian 86(TM) system (copyright 1986, Carnegie Mellon
 University), and the Gaussian 82(TM) system (copyright 1983,
 Carnegie Mellon University). Gaussian is a federally registered
 trademark of Gaussian, Inc.
  
 This software contains proprietary and confidential information,
 including trade secrets, belonging to Gaussian, Inc.
  
 This software is provided under written license and may be
 used, copied, transmitted, or stored only in accord with that
 written license.
  
 The following legend is applicable only to US Government
 contracts under FAR:
  
                    RESTRICTED RIGHTS LEGEND
  
 Use, reproduction and disclosure by the US Government is
 subject to restrictions as set forth in subparagraphs (a)
 and (c) of the Commercial Computer Software - Restricted
 Rights clause in FAR 52.227-19.
  
 Gaussian, Inc.
 340 Quinnipiac St., Bldg. 40, Wallingford CT 06492
  
  
 ---------------------------------------------------------------
 Warning -- This program may not be used in any manner that
 competes with the business of Gaussian, Inc. or will provide
 assistance to any competitor of Gaussian, Inc.  The licensee
 of this program is prohibited from giving any competitor of
 Gaussian, Inc. access to this program.  By using this program,
 the user acknowledges that Gaussian, Inc. is engaged in the
 business of creating and licensing software in the field of
 computational chemistry and represents and warrants to the
 licensee that it is not a competitor of Gaussian, Inc. and that
 it will not use this program in any manner prohibited above.
 ---------------------------------------------------------------
  

 Cite this work as:
 Gaussian 16, Revision B.01,
 M. J. Frisch, G. W. Trucks, H. B. Schlegel, G. E. Scuseria, 
 M. A. Robb, J. R. Cheeseman, G. Scalmani, V. Barone, 
 G. A. Petersson, H. Nakatsuji, X. Li, M. Caricato, A. V. Marenich, 
 J. Bloino, B. G. Janesko, R. Gomperts, B. Mennucci, H. P. Hratchian, 
 J. V. Ortiz, A. F. Izmaylov, J. L. Sonnenberg, D. Williams-Young, 
 F. Ding, F. Lipparini, F. Egidi, J. Goings, B. Peng, A. Petrone, 
 T. Henderson, D. Ranasinghe, V. G. Zakrzewski, J. Gao, N. Rega, 
 G. Zheng, W. Liang, M. Hada, M. Ehara, K. Toyota, R. Fukuda, 
 J. Hasegawa, M. Ishida, T. Nakajima, Y. Honda, O. Kitao, H. Nakai, 
 T. Vreven, K. Throssell, J. A. Montgomery, Jr., J. E. Peralta, 
 F. Ogliaro, M. J. Bearpark, J. J. Heyd, E. N. Brothers, K. N. Kudin, 
 V. N. Staroverov, T. A. Keith, R. Kobayashi, J. Normand, 
 K. Raghavachari, A. P. Rendell, J. C. Burant, S. S. Iyengar, 
 J. Tomasi, M. Cossi, J. M. Millam, M. Klene, C. Adamo, R. Cammi, 
 J. W. Ochterski, R. L. Martin, K. Morokuma, O. Farkas, 
 J. B. Foresman, and D. J. Fox, Gaussian, Inc., Wallingford CT, 2016.
 
 ******************************************
 Gaussian 16:  ES64L-G16RevB.01 20-Dec-2017
                 3-Jul-2023 
 ******************************************
 %NProcShared=8
 Will use up to    8 processors via shared memory.
 %mem=12GB
 %Chk=checkpoint.chk
 -------------------------
 #p B3LYP/6-311+g(d) force
 -------------------------
 1/10=7,30=1,38=1/1,3;
 2/12=2,17=6,18=5,40=1/2;
 3/5=4,6=6,7=11,11=2,25=1,30=1,71=1,74=-5/1,2,3;
 4//1;
 5/5=2,38=5/2;
 6/7=2,8=2,9=2,10=2,28=1/1;
 7/29=1/1,2,3,16;
 1/10=7,30=1/3;
 99//99;
 Leave Link    1 at Mon Jul  3 12:15:10 2023, MaxMem=  1610612736 cpu:               0.2 elap:               0.0
 (Enter /home/masato/g16/l101.exe)
 ----
 Test
 ----
 Symbolic Z-matrix:
 Charge =  0 Multiplicity = 1
 Na                    0.        0.        0. 
 Na                    0.        0.        4.29973 
 Na                    0.        0.        7.82426 
 Na                    0.        0.        10.63782 
 
 ITRead=  0  0  0  0
 MicOpt= -1 -1 -1 -1
 NAtoms=      4 NQM=        4 NQMF=       0 NMMI=      0 NMMIF=      0
                NMic=       0 NMicF=      0.
                    Isotopes and Nuclear Properties:
 (Nuclear quadrupole moments (NQMom) in fm**2, nuclear magnetic moments (NMagM)
  in nuclear magnetons)

  Atom         1           2           3           4
 IAtWgt=          23          23          23          23
 AtmWgt=  22.9897697  22.9897697  22.9897697  22.9897697
 NucSpn=           3           3           3           3
 AtZEff=  -0.0000000  -0.0000000  -0.0000000  -0.0000000
 NQMom=   10.4000000  10.4000000  10.4000000  10.4000000
 NMagM=    2.2175200   2.2175200   2.2175200   2.2175200
 AtZNuc=  11.0000000  11.0000000  11.0000000  11.0000000
 Leave Link  101 at Mon Jul  3 12:15:10 2023, MaxMem=  1610612736 cpu:               1.3 elap:               0.2
 (Enter /home/masato/g16/l103.exe)

 GradGradGradGradGradGradGradGradGradGradGradGradGradGradGradGradGradGrad
 Berny optimization.
 Initialization pass.
 Trust Radius=3.00D-01 FncErr=1.00D-07 GrdErr=1.00D-07 EigMax=2.50D+02 EigMin=1.00D-04
 Number of steps in this run=      2 maximum allowed number of steps=      2.
 GradGradGradGradGradGradGradGradGradGradGradGradGradGradGradGradGradGrad

 Leave Link  103 at Mon Jul  3 12:15:10 2023, MaxMem=  1610612736 cpu:               0.1 elap:               0.0
 (Enter /home/masato/g16/l202.exe)
                          Input orientation:                          
 ---------------------------------------------------------------------
 Center     Atomic      Atomic             Coordinates (Angstroms)
 Number     Number       Type             X           Y           Z
 ---------------------------------------------------------------------
      1         11           0        0.000000    0.000000    0.000000
      2         11           0        0.000000    0.000000    4.299731
      3         11           0        0.000000    0.000000    7.824263
      4         11           0        0.000000    0.000000   10.637821
 ---------------------------------------------------------------------
                    Distance matrix (angstroms):
                    1          2          3          4
     1  Na   0.000000
     2  Na   4.299731   0.000000
     3  Na   7.824263   3.524532   0.000000
     4  Na  10.637821   6.338090   2.813558   0.000000
 Stoichiometry    Na4
 Framework group  C*V[C*(NaNaNaNa)]
 Deg. of freedom     3
 Full point group                 C*V     NOp   4
 Largest Abelian subgroup         C2V     NOp   4
 Largest concise Abelian subgroup C1      NOp   1
                         Standard orientation:                         
 ---------------------------------------------------------------------
 Center     Atomic      Atomic             Coordinates (Angstroms)
 Number     Number       Type             X           Y           Z
 ---------------------------------------------------------------------
      1         11           0        0.000000    0.000000    5.690454
      2         11           0        0.000000    0.000000    1.390723
      3         11           0        0.000000    0.000000   -2.133809
      4         11           0        0.000000    0.000000   -4.947367
 ---------------------------------------------------------------------
 Rotational constants (GHZ):           0.0000000           0.3470328           0.3470328
 Leave Link  202 at Mon Jul  3 12:15:10 2023, MaxMem=  1610612736 cpu:               0.0 elap:               0.0
 (Enter /home/masato/g16/l301.exe)
 Standard basis: 6-311+G(d) (5D, 7F)
 Ernie: Thresh=  0.10000D-02 Tol=  0.10000D-05 Strict=F.
 There are    64 symmetry adapted cartesian basis functions of A1  symmetry.
 There are     4 symmetry adapted cartesian basis functions of A2  symmetry.
 There are    28 symmetry adapted cartesian basis functions of B1  symmetry.
 There are    28 symmetry adapted cartesian basis functions of B2  symmetry.
 There are    60 symmetry adapted basis functions of A1  symmetry.
 There are     4 symmetry adapted basis functions of A2  symmetry.
 There are    28 symmetry adapted basis functions of B1  symmetry.
 There are    28 symmetry adapted basis functions of B2  symmetry.
   120 basis functions,   200 primitive gaussians,   124 cartesian basis functions
    22 alpha electrons       22 beta electrons
       nuclear repulsion energy        80.1218127468 Hartrees.
 IExCor=  402 DFT=T Ex+Corr=B3LYP ExCW=0 ScaHFX=  0.200000
 ScaDFX=  0.800000  0.720000  1.000000  0.810000 ScalE2=  1.000000  1.000000
 IRadAn=      5 IRanWt=     -1 IRanGd=            0 ICorTp=0 IEmpDi=  4
 NAtoms=    4 NActive=    4 NUniq=    4 SFac= 1.00D+00 NAtFMM=   60 NAOKFM=F Big=F
 Integral buffers will be    131072 words long.
 Raffenetti 2 integral format.
 Two-electron integral symmetry is turned on.
 Leave Link  301 at Mon Jul  3 12:15:10 2023, MaxMem=  1610612736 cpu:               0.3 elap:               0.0
 (Enter /home/masato/g16/l302.exe)
 NPDir=0 NMtPBC=     1 NCelOv=     1 NCel=       1 NClECP=     1 NCelD=      1
         NCelK=      1 NCelE2=     1 NClLst=     1 CellRange=     0.0.
 One-electron integrals computed using PRISM.
 One-electron integral symmetry used in STVInt
 NBasis=   120 RedAO= T EigKep=  2.76D-06  NBF=    60     4    28    28
 NBsUse=   119 1.00D-06 EigRej=  1.70D-07 NBFU=    59     4    28    28
 Precomputing XC quadrature grid using
 IXCGrd= 4 IRadAn=           5 IRanWt=          -1 IRanGd=           0 AccXCQ= 0.00D+00.
 Generated NRdTot=       0 NPtTot=           0 NUsed=           0 NTot=          32
 NSgBfM=   114   114   114   114   114 MxSgAt=     4 MxSgA2=     4.
 Leave Link  302 at Mon Jul  3 12:15:10 2023, MaxMem=  1610612736 cpu:               1.0 elap:               0.1
 (Enter /home/masato/g16/l303.exe)
 DipDrv:  MaxL=1.
 Leave Link  303 at Mon Jul  3 12:15:10 2023, MaxMem=  1610612736 cpu:               0.3 elap:               0.0
 (Enter /home/masato/g16/l401.exe)
 ExpMin= 7.60D-03 ExpMax= 3.62D+04 ExpMxC= 1.21D+03 IAcc=3 IRadAn=         5 AccDes= 0.00D+00
 Harris functional with IExCor=  402 and IRadAn=       5 diagonalized for initial guess.
 HarFok:  IExCor=  402 AccDes= 0.00D+00 IRadAn=         5 IDoV= 1 UseB2=F ITyADJ=14
 ICtDFT=  3500011 ScaDFX=  1.000000  1.000000  1.000000  1.000000
 FoFCou: FMM=F IPFlag=           0 FMFlag=      100000 FMFlg1=           0
         NFxFlg=           0 DoJE=T BraDBF=F KetDBF=T FulRan=T
         wScrn=  0.000000 ICntrl=       500 IOpCl=  0 I1Cent=   200000004 NGrid=           0
         NMat0=    1 NMatS0=      1 NMatT0=    0 NMatD0=    1 NMtDS0=    0 NMtDT0=    0
 Petite list used in FoFCou.
 Harris En= -649.062714605952    
 JPrj=0 DoOrth=F DoCkMO=F.
 Initial guess orbital symmetries:
       Occupied  (SG) (SG) (SG) (SG) (SG) (SG) (SG) (SG) (SG) (PI)
                 (PI) (PI) (PI) (SG) (SG) (PI) (PI) (SG) (PI) (PI)
                 (SG) (SG)
       Virtual   (SG) (SG) (PI) (PI) (PI) (PI) (SG) (PI) (PI) (SG)
                 (SG) (PI) (PI) (SG) (SG) (PI) (PI) (PI) (PI) (SG)
                 (SG) (PI) (PI) (PI) (PI) (SG) (SG) (SG) (SG) (SG)
                 (PI) (PI) (SG) (PI) (PI) (PI) (PI) (SG) (PI) (PI)
                 (SG) (SG) (SG) (SG) (SG) (PI) (PI) (DLTA) (DLTA)
                 (SG) (PI) (PI) (DLTA) (DLTA) (DLTA) (DLTA) (DLTA)
                 (DLTA) (PI) (PI) (SG) (SG) (PI) (PI) (PI) (PI)
                 (PI) (PI) (PI) (PI) (SG) (SG) (SG) (PI) (PI) (SG)
                 (SG) (SG) (SG) (SG) (SG) (SG) (PI) (PI) (PI) (PI)
                 (PI) (PI) (PI) (PI) (SG) (SG) (SG) (SG) (SG) (SG)
                 (SG)
 The electronic state of the initial guess is 1-SG.
 Leave Link  401 at Mon Jul  3 12:15:11 2023, MaxMem=  1610612736 cpu:               1.7 elap:               0.2
 (Enter /home/masato/g16/l502.exe)
 Keep R1 ints in memory in symmetry-blocked form, NReq=33989586.
 FoFCou: FMM=F IPFlag=           0 FMFlag=           0 FMFlg1=           0
         NFxFlg=           0 DoJE=F BraDBF=F KetDBF=F FulRan=T
         wScrn=  0.000000 ICntrl=       600 IOpCl=  0 I1Cent=           0 NGrid=           0
         NMat0=    1 NMatS0=   7260 NMatT0=    0 NMatD0=    1 NMtDS0=    0 NMtDT0=    0
 Petite list used in FoFCou.
 Closed shell SCF:
 Using DIIS extrapolation, IDIIS=  1040.
 NGot=  1610612736 LenX=  1603304448 LenY=  1603288631
 Requested convergence on RMS density matrix=1.00D-08 within 128 cycles.
 Requested convergence on MAX density matrix=1.00D-06.
 Requested convergence on             energy=1.00D-06.
 No special actions if energy rises.

 Cycle   1  Pass 1  IDiag  1:
 E= -649.173419242738    
 DIIS: error= 1.40D-02 at cycle   1 NSaved=   1.
 NSaved= 1 IEnMin= 1 EnMin= -649.173419242738     IErMin= 1 ErrMin= 1.40D-02
 ErrMax= 1.40D-02  0.00D+00 EMaxC= 1.00D-01 BMatC= 2.66D-02 BMatP= 2.66D-02
 IDIUse=3 WtCom= 8.60D-01 WtEn= 1.40D-01
 Coeff-Com:  0.100D+01
 Coeff-En:   0.100D+01
 Coeff:      0.100D+01
 Gap=     0.035 Goal=   None    Shift=    0.000
 GapD=    0.035 DampG=0.250 DampE=0.500 DampFc=0.2500 IDamp=-1.
 Damping current iteration by 2.50D-01
 RMSDP=1.91D-02 MaxDP=8.30D-01              OVMax= 3.16D-01

 Cycle   2  Pass 1  IDiag  1:
 E= -649.178895256352     Delta-E=       -0.005476013614 Rises=F Damp=T
 DIIS: error= 9.82D-03 at cycle   2 NSaved=   2.
 NSaved= 2 IEnMin= 2 EnMin= -649.178895256352     IErMin= 2 ErrMin= 9.82D-03
 ErrMax= 9.82D-03  0.00D+00 EMaxC= 1.00D-01 BMatC= 1.01D-02 BMatP= 2.66D-02
 IDIUse=3 WtCom= 9.02D-01 WtEn= 9.82D-02
 Coeff-Com: -0.120D+01 0.220D+01
 Coeff-En:   0.000D+00 0.100D+01
 Coeff:     -0.108D+01 0.208D+01
 Gap=     0.051 Goal=   None    Shift=    0.000
 RMSDP=1.48D-02 MaxDP=6.12D-01 DE=-5.48D-03 OVMax= 5.44D-01

 Cycle   3  Pass 1  IDiag  1:
 E= -649.162914124715     Delta-E=        0.015981131637 Rises=F Damp=F
 DIIS: error= 1.04D-02 at cycle   3 NSaved=   3.
 NSaved= 3 IEnMin= 2 EnMin= -649.178895256352     IErMin= 2 ErrMin= 9.82D-03
 ErrMax= 1.04D-02  0.00D+00 EMaxC= 1.00D-01 BMatC= 3.32D-03 BMatP= 1.01D-02
 IDIUse=3 WtCom= 8.96D-01 WtEn= 1.04D-01
 Coeff-Com: -0.667D+00 0.118D+01 0.491D+00
 Coeff-En:   0.000D+00 0.915D+00 0.850D-01
 Coeff:     -0.597D+00 0.115D+01 0.449D+00
 Gap=     0.030 Goal=   None    Shift=    0.000
 RMSDP=2.31D-02 MaxDP=1.04D+00 DE= 1.60D-02 OVMax= 3.97D-01

 Cycle   4  Pass 1  IDiag  1:
 E= -649.176111134299     Delta-E=       -0.013197009585 Rises=F Damp=F
 DIIS: error= 6.18D-03 at cycle   4 NSaved=   4.
 NSaved= 4 IEnMin= 2 EnMin= -649.178895256352     IErMin= 4 ErrMin= 6.18D-03
 ErrMax= 6.18D-03  0.00D+00 EMaxC= 1.00D-01 BMatC= 1.63D-03 BMatP= 3.32D-03
 IDIUse=3 WtCom= 9.38D-01 WtEn= 6.18D-02
 Coeff-Com:  0.493D-01-0.511D-01 0.401D+00 0.601D+00
 Coeff-En:   0.000D+00 0.000D+00 0.387D+00 0.613D+00
 Coeff:      0.463D-01-0.479D-01 0.400D+00 0.602D+00
 Gap=     0.040 Goal=   None    Shift=    0.000
 RMSDP=1.55D-02 MaxDP=1.02D+00 DE=-1.32D-02 OVMax= 2.19D-01

 Cycle   5  Pass 1  IDiag  1:
 E= -649.189554190590     Delta-E=       -0.013443056291 Rises=F Damp=F
 DIIS: error= 6.88D-04 at cycle   5 NSaved=   5.
 NSaved= 5 IEnMin= 5 EnMin= -649.189554190590     IErMin= 5 ErrMin= 6.88D-04
 ErrMax= 6.88D-04  0.00D+00 EMaxC= 1.00D-01 BMatC= 2.03D-05 BMatP= 1.63D-03
 IDIUse=3 WtCom= 9.93D-01 WtEn= 6.88D-03
 Coeff-Com:  0.365D-02-0.605D-02 0.663D-01 0.132D+00 0.804D+00
 Coeff-En:   0.000D+00 0.000D+00 0.000D+00 0.000D+00 0.100D+01
 Coeff:      0.363D-02-0.601D-02 0.659D-01 0.131D+00 0.805D+00
 Gap=     0.038 Goal=   None    Shift=    0.000
 RMSDP=2.24D-03 MaxDP=1.19D-01 DE=-1.34D-02 OVMax= 2.90D-02

 Cycle   6  Pass 1  IDiag  1:
 E= -649.189631901015     Delta-E=       -0.000077710425 Rises=F Damp=F
 DIIS: error= 5.21D-04 at cycle   6 NSaved=   6.
 NSaved= 6 IEnMin= 6 EnMin= -649.189631901015     IErMin= 6 ErrMin= 5.21D-04
 ErrMax= 5.21D-04  0.00D+00 EMaxC= 1.00D-01 BMatC= 7.99D-06 BMatP= 2.03D-05
 IDIUse=3 WtCom= 9.95D-01 WtEn= 5.21D-03
 Coeff-Com: -0.701D-02 0.898D-02 0.757D-02-0.257D-03 0.354D+00 0.637D+00
 Coeff-En:   0.000D+00 0.000D+00 0.000D+00 0.000D+00 0.287D+00 0.713D+00
 Coeff:     -0.698D-02 0.894D-02 0.753D-02-0.256D-03 0.354D+00 0.637D+00
 Gap=     0.038 Goal=   None    Shift=    0.000
 RMSDP=4.57D-04 MaxDP=1.52D-02 DE=-7.77D-05 OVMax= 9.78D-03

 Cycle   7  Pass 1  IDiag  1:
 E= -649.189672095869     Delta-E=       -0.000040194853 Rises=F Damp=F
 DIIS: error= 1.85D-04 at cycle   7 NSaved=   7.
 NSaved= 7 IEnMin= 7 EnMin= -649.189672095869     IErMin= 7 ErrMin= 1.85D-04
 ErrMax= 1.85D-04  0.00D+00 EMaxC= 1.00D-01 BMatC= 1.52D-06 BMatP= 7.99D-06
 IDIUse=3 WtCom= 9.98D-01 WtEn= 1.85D-03
 Coeff-Com: -0.298D-02 0.379D-02 0.296D-02-0.147D-01 0.996D-01 0.350D+00
 Coeff-Com:  0.561D+00
 Coeff-En:   0.000D+00 0.000D+00 0.000D+00 0.000D+00 0.000D+00 0.000D+00
 Coeff-En:   0.100D+01
 Coeff:     -0.298D-02 0.379D-02 0.296D-02-0.147D-01 0.994D-01 0.349D+00
 Coeff:      0.562D+00
 Gap=     0.038 Goal=   None    Shift=    0.000
 RMSDP=1.67D-04 MaxDP=6.22D-03 DE=-4.02D-05 OVMax= 2.77D-03

 Cycle   8  Pass 1  IDiag  1:
 E= -649.189679046446     Delta-E=       -0.000006950577 Rises=F Damp=F
 DIIS: error= 4.35D-05 at cycle   8 NSaved=   8.
 NSaved= 8 IEnMin= 8 EnMin= -649.189679046446     IErMin= 8 ErrMin= 4.35D-05
 ErrMax= 4.35D-05  0.00D+00 EMaxC= 1.00D-01 BMatC= 5.80D-08 BMatP= 1.52D-06
 IDIUse=1 WtCom= 1.00D+00 WtEn= 0.00D+00
 Coeff-Com: -0.431D-03 0.591D-03 0.186D-02-0.596D-02 0.155D-01 0.744D-01
 Coeff-Com:  0.125D+00 0.789D+00
 Coeff:     -0.431D-03 0.591D-03 0.186D-02-0.596D-02 0.155D-01 0.744D-01
 Coeff:      0.125D+00 0.789D+00
 Gap=     0.038 Goal=   None    Shift=    0.000
 RMSDP=7.22D-05 MaxDP=3.50D-03 DE=-6.95D-06 OVMax= 9.23D-04

 Cycle   9  Pass 1  IDiag  1:
 E= -649.189679473833     Delta-E=       -0.000000427387 Rises=F Damp=F
 DIIS: error= 9.63D-06 at cycle   9 NSaved=   9.
 NSaved= 9 IEnMin= 9 EnMin= -649.189679473833     IErMin= 9 ErrMin= 9.63D-06
 ErrMax= 9.63D-06  0.00D+00 EMaxC= 1.00D-01 BMatC= 7.91D-09 BMatP= 5.80D-08
 IDIUse=1 WtCom= 1.00D+00 WtEn= 0.00D+00
 Coeff-Com:  0.147D-03-0.178D-03 0.851D-03-0.239D-02-0.223D-02 0.108D-01
 Coeff-Com:  0.146D-01 0.374D+00 0.605D+00
 Coeff:      0.147D-03-0.178D-03 0.851D-03-0.239D-02-0.223D-02 0.108D-01
 Coeff:      0.146D-01 0.374D+00 0.605D+00
 Gap=     0.038 Goal=   None    Shift=    0.000
 RMSDP=1.66D-05 MaxDP=6.54D-04 DE=-4.27D-07 OVMax= 1.19D-04

 Cycle  10  Pass 1  IDiag  1:
 E= -649.189679491677     Delta-E=       -0.000000017844 Rises=F Damp=F
 DIIS: error= 4.74D-06 at cycle  10 NSaved=  10.
 NSaved=10 IEnMin=10 EnMin= -649.189679491677     IErMin=10 ErrMin= 4.74D-06
 ErrMax= 4.74D-06  0.00D+00 EMaxC= 1.00D-01 BMatC= 9.08D-10 BMatP= 7.91D-09
 IDIUse=1 WtCom= 1.00D+00 WtEn= 0.00D+00
 Coeff-Com:  0.126D-03-0.168D-03 0.189D-03-0.265D-03-0.268D-02-0.652D-02
 Coeff-Com: -0.103D-01 0.221D-01 0.242D-01 0.973D+00
 Coeff:      0.126D-03-0.168D-03 0.189D-03-0.265D-03-0.268D-02-0.652D-02
 Coeff:     -0.103D-01 0.221D-01 0.242D-01 0.973D+00
 Gap=     0.038 Goal=   None    Shift=    0.000
 RMSDP=9.99D-06 MaxDP=5.02D-04 DE=-1.78D-08 OVMax= 1.34D-04

 Cycle  11  Pass 1  IDiag  1:
 E= -649.189679498293     Delta-E=       -0.000000006616 Rises=F Damp=F
 DIIS: error= 2.22D-07 at cycle  11 NSaved=  11.
 NSaved=11 IEnMin=11 EnMin= -649.189679498293     IErMin=11 ErrMin= 2.22D-07
 ErrMax= 2.22D-07  0.00D+00 EMaxC= 1.00D-01 BMatC= 4.50D-12 BMatP= 9.08D-10
 IDIUse=1 WtCom= 1.00D+00 WtEn= 0.00D+00
 Coeff-Com: -0.110D-04 0.140D-04 0.194D-04-0.126D-04-0.489D-04-0.144D-04
 Coeff-Com: -0.172D-03-0.916D-02-0.194D-01 0.113D+00 0.915D+00
 Coeff:     -0.110D-04 0.140D-04 0.194D-04-0.126D-04-0.489D-04-0.144D-04
 Coeff:     -0.172D-03-0.916D-02-0.194D-01 0.113D+00 0.915D+00
 Gap=     0.038 Goal=   None    Shift=    0.000
 RMSDP=5.93D-07 MaxDP=3.01D-05 DE=-6.62D-09 OVMax= 4.92D-06

 Cycle  12  Pass 1  IDiag  1:
 E= -649.189679498308     Delta-E=       -0.000000000016 Rises=F Damp=F
 DIIS: error= 8.10D-08 at cycle  12 NSaved=  12.
 NSaved=12 IEnMin=12 EnMin= -649.189679498308     IErMin=12 ErrMin= 8.10D-08
 ErrMax= 8.10D-08  0.00D+00 EMaxC= 1.00D-01 BMatC= 2.06D-13 BMatP= 4.50D-12
 IDIUse=1 WtCom= 1.00D+00 WtEn= 0.00D+00
 Coeff-Com: -0.277D-05 0.357D-05 0.872D-06 0.458D-05 0.189D-04 0.154D-03
 Coeff-Com:  0.699D-04-0.234D-02-0.271D-02-0.513D-02 0.169D+00 0.841D+00
 Coeff:     -0.277D-05 0.357D-05 0.872D-06 0.458D-05 0.189D-04 0.154D-03
 Coeff:      0.699D-04-0.234D-02-0.271D-02-0.513D-02 0.169D+00 0.841D+00
 Gap=     0.038 Goal=   None    Shift=    0.000
 RMSDP=1.95D-07 MaxDP=8.20D-06 DE=-1.57D-11 OVMax= 1.78D-06

 Cycle  13  Pass 1  IDiag  1:
 E= -649.189679498310     Delta-E=       -0.000000000002 Rises=F Damp=F
 DIIS: error= 2.53D-08 at cycle  13 NSaved=  13.
 NSaved=13 IEnMin=13 EnMin= -649.189679498310     IErMin=13 ErrMin= 2.53D-08
 ErrMax= 2.53D-08  0.00D+00 EMaxC= 1.00D-01 BMatC= 1.73D-14 BMatP= 2.06D-13
 IDIUse=1 WtCom= 1.00D+00 WtEn= 0.00D+00
 Coeff-Com:  0.617D-06-0.803D-06-0.470D-06 0.212D-05 0.304D-05 0.309D-04
 Coeff-Com:  0.401D-04-0.334D-04 0.107D-02-0.867D-02-0.142D-01 0.289D+00
 Coeff-Com:  0.733D+00
 Coeff:      0.617D-06-0.803D-06-0.470D-06 0.212D-05 0.304D-05 0.309D-04
 Coeff:      0.401D-04-0.334D-04 0.107D-02-0.867D-02-0.142D-01 0.289D+00
 Coeff:      0.733D+00
 Gap=     0.038 Goal=   None    Shift=    0.000
 RMSDP=2.70D-08 MaxDP=9.37D-07 DE=-1.82D-12 OVMax= 5.84D-07

 Cycle  14  Pass 1  IDiag  1:
 E= -649.189679498313     Delta-E=       -0.000000000003 Rises=F Damp=F
 DIIS: error= 6.56D-09 at cycle  14 NSaved=  14.
 NSaved=14 IEnMin=14 EnMin= -649.189679498313     IErMin=14 ErrMin= 6.56D-09
 ErrMax= 6.56D-09  0.00D+00 EMaxC= 1.00D-01 BMatC= 1.02D-15 BMatP= 1.73D-14
 IDIUse=1 WtCom= 1.00D+00 WtEn= 0.00D+00
 Coeff-Com: -0.923D-07 0.123D-06-0.914D-07 0.175D-06-0.254D-06-0.434D-05
 Coeff-Com: -0.409D-05 0.350D-04-0.175D-03 0.132D-02-0.562D-03-0.412D-01
 Coeff-Com: -0.390D-01 0.108D+01
 Coeff:     -0.923D-07 0.123D-06-0.914D-07 0.175D-06-0.254D-06-0.434D-05
 Coeff:     -0.409D-05 0.350D-04-0.175D-03 0.132D-02-0.562D-03-0.412D-01
 Coeff:     -0.390D-01 0.108D+01
 Gap=     0.038 Goal=   None    Shift=    0.000
 RMSDP=5.15D-09 MaxDP=1.78D-07 DE=-2.50D-12 OVMax= 1.52D-07

 SCF Done:  E(RB3LYP) =  -649.189679498     A.U. after   14 cycles
            NFock= 14  Conv=0.51D-08     -V/T= 2.0029
 KE= 6.473252942979D+02 PE=-1.719358854490D+03 EE= 3.427220679473D+02
 Leave Link  502 at Mon Jul  3 12:15:13 2023, MaxMem=  1610612736 cpu:              14.6 elap:               2.0
 (Enter /home/masato/g16/l601.exe)
 Copying SCF densities to generalized density rwf, IOpCl= 0 IROHF=0.

 **********************************************************************

            Population analysis using the SCF Density.

 **********************************************************************

 Orbital symmetries:
       Occupied  (SG) (SG) (SG) (SG) (SG) (SG) (SG) (SG) (PI) (PI)
                 (SG) (SG) (PI) (PI) (PI) (PI) (SG) (SG) (PI) (PI)
                 (SG) (SG)
       Virtual   (SG) (SG) (PI) (PI) (PI) (PI) (SG) (PI) (PI) (SG)
                 (SG) (SG) (PI) (PI) (SG) (PI) (PI) (SG) (PI) (PI)
                 (PI) (PI) (SG) (PI) (PI) (SG) (SG) (SG) (SG) (SG)
                 (PI) (PI) (SG) (PI) (PI) (PI) (PI) (SG) (PI) (PI)
                 (SG) (SG) (SG) (SG) (SG) (PI) (PI) (DLTA) (DLTA)
                 (SG) (PI) (PI) (DLTA) (DLTA) (DLTA) (DLTA) (PI)
                 (PI) (DLTA) (DLTA) (SG) (SG) (PI) (PI) (PI) (PI)
                 (PI) (PI) (PI) (PI) (SG) (SG) (SG) (PI) (PI) (SG)
                 (SG) (SG) (SG) (SG) (SG) (SG) (PI) (PI) (PI) (PI)
                 (PI) (PI) (SG) (PI) (PI) (SG) (SG) (SG) (SG) (SG)
                 (SG)
 The electronic state is 1-SG.
 Alpha  occ. eigenvalues --  -38.45941 -38.45100 -38.45085 -38.44066  -2.21627
 Alpha  occ. eigenvalues --   -2.20921  -2.20802  -2.19916  -1.15305  -1.15305
 Alpha  occ. eigenvalues --   -1.15251  -1.14687  -1.14551  -1.14551  -1.14488
 Alpha  occ. eigenvalues --   -1.14488  -1.14423  -1.13583  -1.13556  -1.13556
 Alpha  occ. eigenvalues --   -0.14506  -0.12017
 Alpha virt. eigenvalues --   -0.08211  -0.04162  -0.03092  -0.03092  -0.01877
 Alpha virt. eigenvalues --   -0.01877  -0.01383  -0.00066  -0.00066   0.00152
 Alpha virt. eigenvalues --    0.00258   0.01095   0.01187   0.01187   0.01282
 Alpha virt. eigenvalues --    0.01415   0.01415   0.02323   0.02439   0.02439
 Alpha virt. eigenvalues --    0.02765   0.02765   0.03019   0.04030   0.04030
 Alpha virt. eigenvalues --    0.04054   0.04522   0.05467   0.05669   0.07212
 Alpha virt. eigenvalues --    0.07314   0.07314   0.07899   0.08106   0.08106
 Alpha virt. eigenvalues --    0.09040   0.09040   0.09485   0.10906   0.10906
 Alpha virt. eigenvalues --    0.12952   0.13163   0.15333   0.15887   0.19869
 Alpha virt. eigenvalues --    0.27782   0.27782   0.31650   0.31650   0.32137
 Alpha virt. eigenvalues --    0.34147   0.34147   0.34446   0.34446   0.35210
 Alpha virt. eigenvalues --    0.35210   0.38583   0.38583   0.38787   0.38787
 Alpha virt. eigenvalues --    0.39215   0.40498   0.42761   0.42761   0.43267
 Alpha virt. eigenvalues --    0.43267   0.44317   0.44317   0.44851   0.44851
 Alpha virt. eigenvalues --    0.45954   0.47319   0.51813   0.53262   0.53262
 Alpha virt. eigenvalues --    0.57440   0.81598   2.00321   2.05404   2.11616
 Alpha virt. eigenvalues --    2.16558   4.42001   4.42905   4.42905   4.43020
 Alpha virt. eigenvalues --    4.43020   4.44477   4.44477   4.46148   4.47006
 Alpha virt. eigenvalues --    4.47006   4.52198   4.73754  96.19239  96.25286
 Alpha virt. eigenvalues --   96.33563  96.39467
          Condensed to atoms (all electrons):
               1          2          3          4
     1  Na  10.609122   0.187293  -0.057031   0.030698
     2  Na   0.187293  10.710250  -0.105966   0.250633
     3  Na  -0.057031  -0.105966  11.972696  -0.374230
     4  Na   0.030698   0.250633  -0.374230  10.845138
 Mulliken charges:
               1
     1  Na   0.229918
     2  Na  -0.042210
     3  Na  -0.435469
     4  Na   0.247761
 Sum of Mulliken charges =   0.00000
 Mulliken charges with hydrogens summed into heavy atoms:
               1
     1  Na   0.229918
     2  Na  -0.042210
     3  Na  -0.435469
     4  Na   0.247761
 Electronic spatial extent (au):  <R**2>=           2565.6185
 Charge=              0.0000 electrons
 Dipole moment (field-independent basis, Debye):
    X=              0.0000    Y=              0.0000    Z=             -0.2127  Tot=              0.2127
 Quadrupole moment (field-independent basis, Debye-Ang):
   XX=            -44.3997   YY=            -44.3997   ZZ=            -15.1985
   XY=              0.0000   XZ=              0.0000   YZ=              0.0000
 Traceless Quadrupole moment (field-independent basis, Debye-Ang):
   XX=             -9.7337   YY=             -9.7337   ZZ=             19.4675
   XY=              0.0000   XZ=              0.0000   YZ=              0.0000
 Octapole moment (field-independent basis, Debye-Ang**2):
  XXX=              0.0000  YYY=              0.0000  ZZZ=             16.3685  XYY=              0.0000
  XXY=              0.0000  XXZ=             -4.6985  XZZ=              0.0000  YZZ=              0.0000
  YYZ=             -4.6985  XYZ=              0.0000
 Hexadecapole moment (field-independent basis, Debye-Ang**3):
 XXXX=           -185.8248 YYYY=           -185.8248 ZZZZ=          -2368.7353 XXXY=              0.0000
 XXXZ=              0.0000 YYYX=              0.0000 YYYZ=              0.0000 ZZZX=              0.0000
 ZZZY=              0.0000 XXYY=            -61.9416 XXZZ=           -733.5812 YYZZ=           -733.5812
 XXYZ=              0.0000 YYXZ=              0.0000 ZZXY=              0.0000
 N-N= 8.012181274685D+01 E-N=-1.719358854197D+03  KE= 6.473252942979D+02
 Symmetry A1   KE= 5.524027040196D+02
 Symmetry A2   KE= 3.762029816459D-53
 Symmetry B1   KE= 4.746129513917D+01
 Symmetry B2   KE= 4.746129513917D+01
 No NMR shielding tensors so no spin-rotation constants.
 Leave Link  601 at Mon Jul  3 12:15:13 2023, MaxMem=  1610612736 cpu:               0.8 elap:               0.1
 (Enter /home/masato/g16/l701.exe)
 ... and contract with generalized density number  0.
 Compute integral first derivatives.
 Leave Link  701 at Mon Jul  3 12:15:13 2023, MaxMem=  1610612736 cpu:               0.8 elap:               0.1
 (Enter /home/masato/g16/l702.exe)
 L702 exits ... SP integral derivatives will be done elsewhere.
 Leave Link  702 at Mon Jul  3 12:15:13 2023, MaxMem=  1610612736 cpu:               0.2 elap:               0.0
 (Enter /home/masato/g16/l703.exe)
 Integral derivatives from FoFJK, PRISM(SPDF).
 Compute integral first derivatives, UseDBF=F ICtDFT=           0.
 Calling FoFJK, ICntrl=      2127 FMM=F ISym2X=1 I1Cent= 0 IOpClX= 0 NMat=1 NMatS=1 NMatT=0.
 FoFJK:  IHMeth= 1 ICntrl=    2127 DoSepK=F KAlg= 0 I1Cent=           0 FoldK=F
 IRaf=         0 NMat=       1 IRICut=       1 DoRegI=T DoRafI=F ISym2E= 1 IDoP0=0 IntGTp=1.
 FoFCou: FMM=F IPFlag=           0 FMFlag=      100000 FMFlg1=         800
         NFxFlg=           0 DoJE=F BraDBF=F KetDBF=F FulRan=T
         wScrn=  0.000000 ICntrl=      2127 IOpCl=  0 I1Cent=           0 NGrid=           0
         NMat0=    1 NMatS0=      1 NMatT0=    0 NMatD0=    1 NMtDS0=    0 NMtDT0=    0
 Petite list used in FoFCou.
 Leave Link  703 at Mon Jul  3 12:15:13 2023, MaxMem=  1610612736 cpu:               4.5 elap:               0.6
 (Enter /home/masato/g16/l716.exe)
 Dipole        = 0.00000000D+00 0.00000000D+00-8.36817671D-02
 ***** Axes restored to original set *****
 -------------------------------------------------------------------
 Center     Atomic                   Forces (Hartrees/Bohr)
 Number     Number              X              Y              Z
 -------------------------------------------------------------------
      1       11          -0.000000000   -0.000000000    0.007245525
      2       11          -0.000000000   -0.000000000   -0.007197533
      3       11          -0.000000000   -0.000000000   -0.007428207
      4       11          -0.000000000   -0.000000000    0.007380215
 -------------------------------------------------------------------
 Cartesian Forces:  Max     0.007428207 RMS     0.004222439
 Z-matrix is all fixed cartesians, so copy forces.
 Force constants in Cartesian coordinates: 
                1             2             3             4             5 
      1  0.100000D+01
      2  0.000000D+00  0.100000D+01
      3  0.000000D+00  0.000000D+00  0.100000D+01
      4  0.000000D+00  0.000000D+00  0.000000D+00  0.563559D-02
      5  0.000000D+00  0.000000D+00  0.000000D+00  0.000000D+00  0.563559D-02
      6  0.000000D+00  0.000000D+00  0.000000D+00  0.000000D+00  0.000000D+00
      7  0.000000D+00  0.000000D+00  0.000000D+00 -0.126953D-01  0.000000D+00
      8  0.000000D+00  0.000000D+00  0.000000D+00  0.000000D+00 -0.126953D-01
      9  0.000000D+00  0.000000D+00  0.000000D+00  0.000000D+00  0.000000D+00
     10  0.000000D+00  0.000000D+00  0.000000D+00  0.705968D-02  0.000000D+00
     11  0.000000D+00  0.000000D+00  0.000000D+00  0.000000D+00  0.705968D-02
     12  0.000000D+00  0.000000D+00  0.000000D+00  0.000000D+00  0.000000D+00
                6             7             8             9            10 
      6  0.179032D-01
      7  0.000000D+00  0.285986D-01
      8  0.000000D+00  0.000000D+00  0.285986D-01
      9 -0.179032D-01  0.000000D+00  0.000000D+00  0.684691D-01
     10  0.000000D+00 -0.159033D-01  0.000000D+00  0.000000D+00  0.884363D-02
     11  0.000000D+00  0.000000D+00 -0.159033D-01  0.000000D+00  0.000000D+00
     12  0.000000D+00  0.000000D+00  0.000000D+00 -0.505660D-01  0.000000D+00
               11            12 
     11  0.884363D-02
     12  0.000000D+00  0.505660D-01
 Leave Link  716 at Mon Jul  3 12:15:14 2023, MaxMem=  1610612736 cpu:               0.2 elap:               0.0
 (Enter /home/masato/g16/l103.exe)

 GradGradGradGradGradGradGradGradGradGradGradGradGradGradGradGradGradGrad
 Berny optimization.
 Search for a local minimum.
 Step number   1 out of a maximum of    2
 All quantities printed in internal units (Hartrees-Bohrs-Radians)
 Second derivative matrix not updated -- first step.
 The second derivative matrix:
                          X1        Y1        Z1        X2        Y2
           X1           1.00000
           Y1           0.00000   1.00000
           Z1           0.00000   0.00000   1.00000
           X2           0.00000   0.00000   0.00000   0.00564
           Y2           0.00000   0.00000   0.00000   0.00000   0.00564
           Z2           0.00000   0.00000   0.00000   0.00000   0.00000
           X3           0.00000   0.00000   0.00000  -0.01270   0.00000
           Y3           0.00000   0.00000   0.00000   0.00000  -0.01270
           Z3           0.00000   0.00000   0.00000   0.00000   0.00000
           X4           0.00000   0.00000   0.00000   0.00706   0.00000
           Y4           0.00000   0.00000   0.00000   0.00000   0.00706
           Z4           0.00000   0.00000   0.00000   0.00000   0.00000
                          Z2        X3        Y3        Z3        X4
           Z2           0.01790
           X3           0.00000   0.02860
           Y3           0.00000   0.00000   0.02860
           Z3          -0.01790   0.00000   0.00000   0.06847
           X4           0.00000  -0.01590   0.00000   0.00000   0.00884
           Y4           0.00000   0.00000  -0.01590   0.00000   0.00000
           Z4           0.00000   0.00000   0.00000  -0.05057   0.00000
                          Y4        Z4
           Y4           0.00884
           Z4           0.00000   0.05057
 ITU=  0
     Eigenvalues ---    0.02406   0.04308   0.04308   0.11288   0.23881
     Eigenvalues ---    0.23881   0.75000
 Quadratic step=3.274D-01 exceeds max=3.000D-01 adjusted using Lamda=-2.299D-03.
 Angle between NR and scaled steps=   1.03 degrees.
 Angle between quadratic step and forces=  46.17 degrees.
 ClnCor:  largest displacement from symmetrization is 0.00D+00 for atom     0.
 Linear search not attempted -- first point.
 ClnCor:  largest displacement from symmetrization is 6.54D-16 for atom     1.
 B after Tr=     0.000000    0.000000    0.000000
         Rot=    1.000000    0.000000    0.000000    0.000000 Ang=   0.00 deg.
 Variable       Old X    -DE/DX   Delta X   Delta X   Delta X     New X
                                 (Linear)    (Quad)   (Total)
    X1        0.00000  -0.00000   0.00000   0.00000   0.00000   0.00000
    Y1        0.00000  -0.00000   0.00000   0.00000   0.00000   0.00000
    Z1        0.00000   0.00725   0.00000   0.00963   0.00963   0.00963
    X2        0.00000  -0.00000   0.00000   0.00000   0.00000   0.00000
    Y2        0.00000  -0.00000   0.00000   0.00000   0.00000   0.00000
    Z2        8.12531  -0.00720   0.00000  -0.22390  -0.22390   7.90142
    X3        0.00000  -0.00000   0.00000   0.00000   0.00000   0.00000
    Y3        0.00000  -0.00000   0.00000   0.00000   0.00000   0.00000
    Z3       14.78571  -0.00743   0.00000   0.01488   0.01488  14.80060
    X4        0.00000  -0.00000   0.00000   0.00000   0.00000   0.00000
    Y4        0.00000  -0.00000   0.00000   0.00000   0.00000   0.00000
    Z4       20.10257   0.00738   0.00000   0.19938   0.19938  20.30195
         Item               Value     Threshold  Converged?
 Maximum Force            0.007428     0.000450     NO 
 RMS     Force            0.004222     0.000300     NO 
 Maximum Displacement     0.223897     0.001800     NO 
 RMS     Displacement     0.086698     0.001200     NO 
 Predicted change in Energy=-1.624824D-03
 GradGradGradGradGradGradGradGradGradGradGradGradGradGradGradGradGradGrad

 Leave Link  103 at Mon Jul  3 12:15:14 2023, MaxMem=  1610612736 cpu:               0.1 elap:               0.0
 (Enter /home/masato/g16/l9999.exe)
 1\1\GINC-MASATO-THINKPAD-T480S\Force\RB3LYP\6-311+G(d)\Na4\MASATO\03-J
 ul-2023\0\\#p B3LYP/6-311+g(d) force\\Test\\0,1\Na,0.,0.,0.\Na,0.,0.,4
 .2997309753\Na,0.,0.,7.8242631806\Na,0.,0.,10.637821342\\Version=ES64L
 -G16RevB.01\State=1-SG\HF=-649.1896795\RMSD=5.149e-09\RMSF=4.222e-03\D
 ipole=0.,0.,0.0836818\Quadrupole=-7.2368004,-7.2368004,14.4736007,0.,0
 .,0.\PG=C*V [C*(Na1Na1Na1Na1)]\\@


 WE HAVE LEARNED THAT NOTHING IS SIMPLE AND
 RATIONAL EXCEPT WHAT WE OURSELVES HAVE INVENTED;
 THAT GOD THINKS IN TERMS NEITHER OF EUCLID OR RIEMANN; THAT SCIENCE HAS "EXPLAINED" NOTHING;
 THAT THE MORE WE KNOW THE MORE FANTASTIC THE WORLD BECOMES
 AND THE PROFOUNDER THE SURROUNDING DARKNESS.
   --  ALDOUS HUXLEY
 Job cpu time:       0 days  0 hours  0 minutes 26.5 seconds.
 Elapsed time:       0 days  0 hours  0 minutes  3.6 seconds.
 File lengths (MBytes):  RWF=     11 Int=      0 D2E=      0 Chk=      2 Scr=      1
 Normal termination of Gaussian 16 at Mon Jul  3 12:15:14 2023.
