 Initial command:
 /home/sekinelabo/g16/l1.exe "/home/sekinelabo/g16temp/Gau-19052.inp" -scrdir="/home/sekinelabo/g16temp/"
 Entering Link 1 = /home/sekinelabo/g16/l1.exe PID=     20301.
  
 Copyright (c) 1988-2017, Gaussian, Inc.  All Rights Reserved.
  
 This is part of the Gaussian(R) 16 program.  It is based on
 the Gaussian(R) 09 system (copyright 2009, Gaussian, Inc.),
 the Gaussian(R) 03 system (copyright 2003, Gaussian, Inc.),
 the Gaussian(R) 98 system (copyright 1998, Gaussian, Inc.),
 the Gaussian(R) 94 system (copyright 1995, Gaussian, Inc.),
 the Gaussian 92(TM) system (copyright 1992, Gaussian, Inc.),
 the Gaussian 90(TM) system (copyright 1990, Gaussian, Inc.),
 the Gaussian 88(TM) system (copyright 1988, Gaussian, Inc.),
 the Gaussian 86(TM) system (copyright 1986, Carnegie Mellon
 University), and the Gaussian 82(TM) system (copyright 1983,
 Carnegie Mellon University). Gaussian is a federally registered
 trademark of Gaussian, Inc.
  
 This software contains proprietary and confidential information,
 including trade secrets, belonging to Gaussian, Inc.
  
 This software is provided under written license and may be
 used, copied, transmitted, or stored only in accord with that
 written license.
  
 The following legend is applicable only to US Government
 contracts under FAR:
  
                    RESTRICTED RIGHTS LEGEND
  
 Use, reproduction and disclosure by the US Government is
 subject to restrictions as set forth in subparagraphs (a)
 and (c) of the Commercial Computer Software - Restricted
 Rights clause in FAR 52.227-19.
  
 Gaussian, Inc.
 340 Quinnipiac St., Bldg. 40, Wallingford CT 06492
  
  
 ---------------------------------------------------------------
 Warning -- This program may not be used in any manner that
 competes with the business of Gaussian, Inc. or will provide
 assistance to any competitor of Gaussian, Inc.  The licensee
 of this program is prohibited from giving any competitor of
 Gaussian, Inc. access to this program.  By using this program,
 the user acknowledges that Gaussian, Inc. is engaged in the
 business of creating and licensing software in the field of
 computational chemistry and represents and warrants to the
 licensee that it is not a competitor of Gaussian, Inc. and that
 it will not use this program in any manner prohibited above.
 ---------------------------------------------------------------
  

 Cite this work as:
 Gaussian 16, Revision B.01,
 M. J. Frisch, G. W. Trucks, H. B. Schlegel, G. E. Scuseria, 
 M. A. Robb, J. R. Cheeseman, G. Scalmani, V. Barone, 
 G. A. Petersson, H. Nakatsuji, X. Li, M. Caricato, A. V. Marenich, 
 J. Bloino, B. G. Janesko, R. Gomperts, B. Mennucci, H. P. Hratchian, 
 J. V. Ortiz, A. F. Izmaylov, J. L. Sonnenberg, D. Williams-Young, 
 F. Ding, F. Lipparini, F. Egidi, J. Goings, B. Peng, A. Petrone, 
 T. Henderson, D. Ranasinghe, V. G. Zakrzewski, J. Gao, N. Rega, 
 G. Zheng, W. Liang, M. Hada, M. Ehara, K. Toyota, R. Fukuda, 
 J. Hasegawa, M. Ishida, T. Nakajima, Y. Honda, O. Kitao, H. Nakai, 
 T. Vreven, K. Throssell, J. A. Montgomery, Jr., J. E. Peralta, 
 F. Ogliaro, M. J. Bearpark, J. J. Heyd, E. N. Brothers, K. N. Kudin, 
 V. N. Staroverov, T. A. Keith, R. Kobayashi, J. Normand, 
 K. Raghavachari, A. P. Rendell, J. C. Burant, S. S. Iyengar, 
 J. Tomasi, M. Cossi, J. M. Millam, M. Klene, C. Adamo, R. Cammi, 
 J. W. Ochterski, R. L. Martin, K. Morokuma, O. Farkas, 
 J. B. Foresman, and D. J. Fox, Gaussian, Inc., Wallingford CT, 2016.
 
 ******************************************
 Gaussian 16:  ES64L-G16RevB.01 20-Dec-2017
                 8-Aug-2023 
 ******************************************
 %NProcShared=16
 Will use up to   16 processors via shared memory.
 %mem=12GB
 %Chk=checkpoint.chk
 -------------------------
 #p B3LYP/6-311+g(d) force
 -------------------------
 1/10=7,30=1,38=1/1,3;
 2/12=2,17=6,18=5,40=1/2;
 3/5=4,6=6,7=11,11=2,25=1,30=1,71=1,74=-5/1,2,3;
 4//1;
 5/5=2,38=5/2;
 6/7=2,8=2,9=2,10=2,28=1/1;
 7/29=1/1,2,3,16;
 1/10=7,30=1/3;
 99//99;
 Leave Link    1 at Tue Aug  8 11:07:18 2023, MaxMem=  1610612736 cpu:               0.2 elap:               0.0
 (Enter /home/sekinelabo/g16/l101.exe)
 ----
 Test
 ----
 Symbolic Z-matrix:
 Charge =  0 Multiplicity = 1
 Na                    0.        0.        0. 
 Na                   -1.74791   0.       -2.1068 
 Na                    0.        0.        5.38551 
 Na                    3.72018  -1.58244   9.34267 
 
 ITRead=  0  0  0  0
 MicOpt= -1 -1 -1 -1
 NAtoms=      4 NQM=        4 NQMF=       0 NMMI=      0 NMMIF=      0
                NMic=       0 NMicF=      0.
                    Isotopes and Nuclear Properties:
 (Nuclear quadrupole moments (NQMom) in fm**2, nuclear magnetic moments (NMagM)
  in nuclear magnetons)

  Atom         1           2           3           4
 IAtWgt=          23          23          23          23
 AtmWgt=  22.9897697  22.9897697  22.9897697  22.9897697
 NucSpn=           3           3           3           3
 AtZEff=  -0.0000000  -0.0000000  -0.0000000  -0.0000000
 NQMom=   10.4000000  10.4000000  10.4000000  10.4000000
 NMagM=    2.2175200   2.2175200   2.2175200   2.2175200
 AtZNuc=  11.0000000  11.0000000  11.0000000  11.0000000
 Leave Link  101 at Tue Aug  8 11:07:18 2023, MaxMem=  1610612736 cpu:               1.6 elap:               0.1
 (Enter /home/sekinelabo/g16/l103.exe)

 GradGradGradGradGradGradGradGradGradGradGradGradGradGradGradGradGradGrad
 Berny optimization.
 Initialization pass.
 Trust Radius=3.00D-01 FncErr=1.00D-07 GrdErr=1.00D-07 EigMax=2.50D+02 EigMin=1.00D-04
 Number of steps in this run=      2 maximum allowed number of steps=      2.
 GradGradGradGradGradGradGradGradGradGradGradGradGradGradGradGradGradGrad

 Leave Link  103 at Tue Aug  8 11:07:18 2023, MaxMem=  1610612736 cpu:               0.2 elap:               0.0
 (Enter /home/sekinelabo/g16/l202.exe)
                          Input orientation:                          
 ---------------------------------------------------------------------
 Center     Atomic      Atomic             Coordinates (Angstroms)
 Number     Number       Type             X           Y           Z
 ---------------------------------------------------------------------
      1         11           0        0.000000    0.000000    0.000000
      2         11           0       -1.747908    0.000000   -2.106799
      3         11           0        0.000000    0.000000    5.385510
      4         11           0        3.720179   -1.582442    9.342674
 ---------------------------------------------------------------------
                    Distance matrix (angstroms):
                    1          2          3          4
     1  Na   0.000000
     2  Na   2.737478   0.000000
     3  Na   5.385510   7.693496   0.000000
     4  Na  10.179853  12.786498   5.657119   0.000000
 Stoichiometry    Na4
 Framework group  C1[X(Na4)]
 Deg. of freedom     6
 Full point group                 C1      NOp   1
 Largest Abelian subgroup         C1      NOp   1
 Largest concise Abelian subgroup C1      NOp   1
                         Standard orientation:                         
 ---------------------------------------------------------------------
 Center     Atomic      Atomic             Coordinates (Angstroms)
 Number     Number       Type             X           Y           Z
 ---------------------------------------------------------------------
      1         11           0        3.129452   -0.684353    0.306630
      2         11           0        5.726203   -0.044848   -0.277923
      3         11           0       -1.813858    1.440978    0.082195
      4         11           0       -7.041798   -0.711777   -0.110902
 ---------------------------------------------------------------------
 Rotational constants (GHZ):           6.7770373           0.2298247           0.2231454
 Leave Link  202 at Tue Aug  8 11:07:18 2023, MaxMem=  1610612736 cpu:               0.0 elap:               0.0
 (Enter /home/sekinelabo/g16/l301.exe)
 Standard basis: 6-311+G(d) (5D, 7F)
 Ernie: Thresh=  0.10000D-02 Tol=  0.10000D-05 Strict=F.
 There are   124 symmetry adapted cartesian basis functions of A   symmetry.
 There are   120 symmetry adapted basis functions of A   symmetry.
   120 basis functions,   200 primitive gaussians,   124 cartesian basis functions
    22 alpha electrons       22 beta electrons
       nuclear repulsion energy        66.2185077654 Hartrees.
 IExCor=  402 DFT=T Ex+Corr=B3LYP ExCW=0 ScaHFX=  0.200000
 ScaDFX=  0.800000  0.720000  1.000000  0.810000 ScalE2=  1.000000  1.000000
 IRadAn=      5 IRanWt=     -1 IRanGd=            0 ICorTp=0 IEmpDi=  4
 NAtoms=    4 NActive=    4 NUniq=    4 SFac= 1.00D+00 NAtFMM=   60 NAOKFM=F Big=F
 Integral buffers will be    131072 words long.
 Raffenetti 2 integral format.
 Two-electron integral symmetry is turned on.
 Leave Link  301 at Tue Aug  8 11:07:18 2023, MaxMem=  1610612736 cpu:               0.4 elap:               0.0
 (Enter /home/sekinelabo/g16/l302.exe)
 NPDir=0 NMtPBC=     1 NCelOv=     1 NCel=       1 NClECP=     1 NCelD=      1
         NCelK=      1 NCelE2=     1 NClLst=     1 CellRange=     0.0.
 One-electron integrals computed using PRISM.
 One-electron integral symmetry used in STVInt
 NBasis=   120 RedAO= T EigKep=  3.49D-05  NBF=   120
 NBsUse=   120 1.00D-06 EigRej= -1.00D+00 NBFU=   120
 Precomputing XC quadrature grid using
 IXCGrd= 4 IRadAn=           5 IRanWt=          -1 IRanGd=           0 AccXCQ= 0.00D+00.
 Generated NRdTot=       0 NPtTot=           0 NUsed=           0 NTot=          32
 NSgBfM=   112   111   112   112   112 MxSgAt=     4 MxSgA2=     4.
 Leave Link  302 at Tue Aug  8 11:07:18 2023, MaxMem=  1610612736 cpu:               1.3 elap:               0.1
 (Enter /home/sekinelabo/g16/l303.exe)
 DipDrv:  MaxL=1.
 Leave Link  303 at Tue Aug  8 11:07:18 2023, MaxMem=  1610612736 cpu:               0.3 elap:               0.0
 (Enter /home/sekinelabo/g16/l401.exe)
 ExpMin= 7.60D-03 ExpMax= 3.62D+04 ExpMxC= 1.21D+03 IAcc=3 IRadAn=         5 AccDes= 0.00D+00
 Harris functional with IExCor=  402 and IRadAn=       5 diagonalized for initial guess.
 HarFok:  IExCor=  402 AccDes= 0.00D+00 IRadAn=         5 IDoV= 1 UseB2=F ITyADJ=14
 ICtDFT=  3500011 ScaDFX=  1.000000  1.000000  1.000000  1.000000
 FoFCou: FMM=F IPFlag=           0 FMFlag=      100000 FMFlg1=           0
         NFxFlg=           0 DoJE=T BraDBF=F KetDBF=T FulRan=T
         wScrn=  0.000000 ICntrl=       500 IOpCl=  0 I1Cent=   200000004 NGrid=           0
         NMat0=    1 NMatS0=      1 NMatT0=    0 NMatD0=    1 NMtDS0=    0 NMtDT0=    0
 Petite list used in FoFCou.
 Harris En= -649.042838571133    
 JPrj=0 DoOrth=F DoCkMO=F.
 Leave Link  401 at Tue Aug  8 11:07:18 2023, MaxMem=  1610612736 cpu:               1.9 elap:               0.1
 (Enter /home/sekinelabo/g16/l502.exe)
 Keep R1 ints in memory in canonical form, NReq=41581754.
 FoFCou: FMM=F IPFlag=           0 FMFlag=           0 FMFlg1=           0
         NFxFlg=           0 DoJE=F BraDBF=F KetDBF=F FulRan=T
         wScrn=  0.000000 ICntrl=       600 IOpCl=  0 I1Cent=           0 NGrid=           0
         NMat0=    1 NMatS0=   7260 NMatT0=    0 NMatD0=    1 NMtDS0=    0 NMtDT0=    0
 Symmetry not used in FoFCou.
 Two-electron integral symmetry not used.
 Closed shell SCF:
 Using DIIS extrapolation, IDIIS=  1040.
 NGot=  1610612736 LenX=  1584221388 LenY=  1584205571
 Requested convergence on RMS density matrix=1.00D-08 within 128 cycles.
 Requested convergence on MAX density matrix=1.00D-06.
 Requested convergence on             energy=1.00D-06.
 No special actions if energy rises.

 Cycle   1  Pass 1  IDiag  1:
 E= -649.154225387193    
 DIIS: error= 1.48D-02 at cycle   1 NSaved=   1.
 NSaved= 1 IEnMin= 1 EnMin= -649.154225387193     IErMin= 1 ErrMin= 1.48D-02
 ErrMax= 1.48D-02  0.00D+00 EMaxC= 1.00D-01 BMatC= 2.65D-02 BMatP= 2.65D-02
 IDIUse=3 WtCom= 8.52D-01 WtEn= 1.48D-01
 Coeff-Com:  0.100D+01
 Coeff-En:   0.100D+01
 Coeff:      0.100D+01
 Gap=     0.028 Goal=   None    Shift=    0.000
 GapD=    0.028 DampG=0.250 DampE=0.500 DampFc=0.2500 IDamp=-1.
 Damping current iteration by 2.50D-01
 RMSDP=3.63D-03 MaxDP=1.37D-01              OVMax= 2.52D-01

 Cycle   2  Pass 1  IDiag  1:
 E= -649.158036564187     Delta-E=       -0.003811176994 Rises=F Damp=T
 DIIS: error= 1.05D-02 at cycle   2 NSaved=   2.
 NSaved= 2 IEnMin= 2 EnMin= -649.158036564187     IErMin= 2 ErrMin= 1.05D-02
 ErrMax= 1.05D-02  0.00D+00 EMaxC= 1.00D-01 BMatC= 1.02D-02 BMatP= 2.65D-02
 IDIUse=3 WtCom= 8.95D-01 WtEn= 1.05D-01
 Coeff-Com: -0.124D+01 0.224D+01
 Coeff-En:   0.000D+00 0.100D+01
 Coeff:     -0.111D+01 0.211D+01
 Gap=     0.019 Goal=   None    Shift=    0.000
 RMSDP=4.27D-03 MaxDP=2.23D-01 DE=-3.81D-03 OVMax= 5.50D-01

 Cycle   3  Pass 1  IDiag  1:
 E= -649.118141188808     Delta-E=        0.039895375379 Rises=F Damp=F
 DIIS: error= 7.96D-03 at cycle   3 NSaved=   3.
 NSaved= 3 IEnMin= 2 EnMin= -649.158036564187     IErMin= 3 ErrMin= 7.96D-03
 ErrMax= 7.96D-03  0.00D+00 EMaxC= 1.00D-01 BMatC= 4.63D-03 BMatP= 1.02D-02
 IDIUse=3 WtCom= 9.20D-01 WtEn= 7.96D-02
 Coeff-Com: -0.757D+00 0.134D+01 0.420D+00
 Coeff-En:   0.000D+00 0.931D+00 0.691D-01
 Coeff:     -0.696D+00 0.130D+01 0.392D+00
 Gap=     0.005 Goal=   None    Shift=    0.000
 RMSDP=6.68D-03 MaxDP=4.09D-01 DE= 3.99D-02 OVMax= 6.83D-01

 Cycle   4  Pass 1  IDiag  1:
 E= -649.118004046800     Delta-E=        0.000137142008 Rises=F Damp=F
 DIIS: error= 7.45D-03 at cycle   4 NSaved=   4.
 NSaved= 4 IEnMin= 2 EnMin= -649.158036564187     IErMin= 4 ErrMin= 7.45D-03
 ErrMax= 7.45D-03  0.00D+00 EMaxC= 1.00D-01 BMatC= 4.71D-03 BMatP= 4.63D-03
 IDIUse=3 WtCom= 9.25D-01 WtEn= 7.45D-02
 EnCoef did     4 forward-backward iterations
 Coeff-Com: -0.812D-01 0.181D+00 0.464D+00 0.436D+00
 Coeff-En:   0.000D+00 0.302D+00 0.358D+00 0.340D+00
 Coeff:     -0.751D-01 0.190D+00 0.456D+00 0.429D+00
 Gap=     0.020 Goal=   None    Shift=    0.000
 RMSDP=3.59D-03 MaxDP=2.43D-01 DE= 1.37D-04 OVMax= 3.65D-01

 Cycle   5  Pass 1  IDiag  1:
 E= -649.167163830220     Delta-E=       -0.049159783421 Rises=F Damp=F
 DIIS: error= 4.64D-04 at cycle   5 NSaved=   5.
 NSaved= 5 IEnMin= 5 EnMin= -649.167163830220     IErMin= 5 ErrMin= 4.64D-04
 ErrMax= 4.64D-04  0.00D+00 EMaxC= 1.00D-01 BMatC= 2.41D-05 BMatP= 4.63D-03
 IDIUse=3 WtCom= 9.95D-01 WtEn= 4.64D-03
 Coeff-Com:  0.133D-01-0.186D-01 0.703D-01 0.469D-01 0.888D+00
 Coeff-En:   0.000D+00 0.000D+00 0.000D+00 0.000D+00 0.100D+01
 Coeff:      0.133D-01-0.185D-01 0.700D-01 0.467D-01 0.889D+00
 Gap=     0.029 Goal=   None    Shift=    0.000
 RMSDP=2.91D-04 MaxDP=5.99D-03 DE=-4.92D-02 OVMax= 2.27D-02

 Cycle   6  Pass 1  IDiag  1:
 E= -649.167266976914     Delta-E=       -0.000103146694 Rises=F Damp=F
 DIIS: error= 2.51D-04 at cycle   6 NSaved=   6.
 NSaved= 6 IEnMin= 6 EnMin= -649.167266976914     IErMin= 6 ErrMin= 2.51D-04
 ErrMax= 2.51D-04  0.00D+00 EMaxC= 1.00D-01 BMatC= 7.22D-06 BMatP= 2.41D-05
 IDIUse=3 WtCom= 9.97D-01 WtEn= 2.51D-03
 Coeff-Com:  0.498D-02-0.736D-02 0.205D-01-0.120D-01 0.221D+00 0.773D+00
 Coeff-En:   0.000D+00 0.000D+00 0.000D+00 0.000D+00 0.000D+00 0.100D+01
 Coeff:      0.497D-02-0.735D-02 0.205D-01-0.120D-01 0.220D+00 0.774D+00
 Gap=     0.029 Goal=   None    Shift=    0.000
 RMSDP=1.64D-04 MaxDP=5.91D-03 DE=-1.03D-04 OVMax= 3.07D-03

 Cycle   7  Pass 1  IDiag  1:
 E= -649.167273502820     Delta-E=       -0.000006525906 Rises=F Damp=F
 DIIS: error= 2.63D-04 at cycle   7 NSaved=   7.
 NSaved= 7 IEnMin= 7 EnMin= -649.167273502820     IErMin= 6 ErrMin= 2.51D-04
 ErrMax= 2.63D-04  0.00D+00 EMaxC= 1.00D-01 BMatC= 5.22D-06 BMatP= 7.22D-06
 IDIUse=3 WtCom= 9.97D-01 WtEn= 2.51D-03
 Coeff-Com:  0.393D-02-0.548D-02 0.172D-01-0.161D-01 0.678D-01 0.196D+00
 Coeff-Com:  0.737D+00
 Coeff-En:   0.000D+00 0.000D+00 0.000D+00 0.000D+00 0.000D+00 0.000D+00
 Coeff-En:   0.100D+01
 Coeff:      0.392D-02-0.547D-02 0.171D-01-0.160D-01 0.676D-01 0.195D+00
 Coeff:      0.738D+00
 Gap=     0.029 Goal=   None    Shift=    0.000
 RMSDP=3.94D-05 MaxDP=1.42D-03 DE=-6.53D-06 OVMax= 8.84D-04

 Cycle   8  Pass 1  IDiag  1:
 E= -649.167280988316     Delta-E=       -0.000007485496 Rises=F Damp=F
 DIIS: error= 2.25D-04 at cycle   8 NSaved=   8.
 NSaved= 8 IEnMin= 8 EnMin= -649.167280988316     IErMin= 8 ErrMin= 2.25D-04
 ErrMax= 2.25D-04  0.00D+00 EMaxC= 1.00D-01 BMatC= 4.36D-06 BMatP= 5.22D-06
 IDIUse=3 WtCom= 9.98D-01 WtEn= 2.25D-03
 Coeff-Com:  0.352D-02-0.489D-02 0.149D-01-0.150D-01-0.839D-02-0.116D+00
 Coeff-Com: -0.254D+00 0.138D+01
 Coeff-En:   0.000D+00 0.000D+00 0.000D+00 0.000D+00 0.000D+00 0.000D+00
 Coeff-En:   0.000D+00 0.100D+01
 Coeff:      0.351D-02-0.488D-02 0.148D-01-0.149D-01-0.837D-02-0.115D+00
 Coeff:     -0.253D+00 0.138D+01
 Gap=     0.029 Goal=   None    Shift=    0.000
 RMSDP=2.24D-05 MaxDP=7.90D-04 DE=-7.49D-06 OVMax= 3.73D-04

 Cycle   9  Pass 1  IDiag  1:
 E= -649.167282755703     Delta-E=       -0.000001767388 Rises=F Damp=F
 DIIS: error= 2.27D-04 at cycle   9 NSaved=   9.
 NSaved= 9 IEnMin= 9 EnMin= -649.167282755703     IErMin= 8 ErrMin= 2.25D-04
 ErrMax= 2.27D-04  0.00D+00 EMaxC= 1.00D-01 BMatC= 4.02D-06 BMatP= 4.36D-06
 IDIUse=3 WtCom= 9.98D-01 WtEn= 2.25D-03
 Coeff-Com:  0.333D-02-0.466D-02 0.145D-01-0.145D-01-0.115D-01-0.115D+00
 Coeff-Com: -0.375D+00 0.115D+01 0.354D+00
 Coeff-En:   0.000D+00 0.000D+00 0.000D+00 0.000D+00 0.000D+00 0.000D+00
 Coeff-En:   0.000D+00 0.000D+00 0.100D+01
 Coeff:      0.332D-02-0.464D-02 0.145D-01-0.145D-01-0.115D-01-0.115D+00
 Coeff:     -0.374D+00 0.115D+01 0.355D+00
 Gap=     0.029 Goal=   None    Shift=    0.000
 RMSDP=4.40D-06 MaxDP=2.20D-04 DE=-1.77D-06 OVMax= 3.71D-04

 Cycle  10  Pass 1  IDiag  1:
 E= -649.167285418276     Delta-E=       -0.000002662572 Rises=F Damp=F
 DIIS: error= 2.17D-04 at cycle  10 NSaved=  10.
 NSaved=10 IEnMin=10 EnMin= -649.167285418276     IErMin=10 ErrMin= 2.17D-04
 ErrMax= 2.17D-04  0.00D+00 EMaxC= 1.00D-01 BMatC= 3.70D-06 BMatP= 4.02D-06
 IDIUse=3 WtCom= 9.98D-01 WtEn= 2.17D-03
 Large coefficients: NSaved= 10 BigCof=   11.01 CofMax=   10.00 Det=-6.13D-10
 Inversion failed.  Reducing to  9 matrices.
 Large coefficients: NSaved=  9 BigCof=   15.92 CofMax=   10.00 Det=-1.26D-09
 Inversion failed.  Reducing to  8 matrices.
 Large coefficients: NSaved=  8 BigCof=   19.99 CofMax=   10.00 Det=-2.73D-09
 Inversion failed.  Reducing to  7 matrices.
 Large coefficients: NSaved=  7 BigCof=   19.71 CofMax=   10.00 Det=-2.80D-09
 Inversion failed.  Reducing to  6 matrices.
 Large coefficients: NSaved=  6 BigCof=   19.73 CofMax=   10.00 Det=-2.81D-09
 Inversion failed.  Reducing to  5 matrices.
 Large coefficients: NSaved=  5 BigCof=   19.39 CofMax=   10.00 Det=-3.35D-09
 Inversion failed.  Reducing to  4 matrices.
 Large coefficients: NSaved=  4 BigCof=   17.53 CofMax=   10.00 Det=-3.54D-09
 Inversion failed.  Reducing to  3 matrices.
 Large coefficients: NSaved=  3 BigCof=   19.71 CofMax=   10.00 Det=-6.22D-09
 Inversion failed.  Reducing to  2 matrices.
 Large coefficients: NSaved=  2 BigCof=   20.34 CofMax=   10.00 Det=-8.24D-09
 Coeff-Com: -0.193D+02 0.203D+02
 Coeff-En:   0.000D+00 0.100D+01
 Coeff:     -0.193D+02 0.203D+02
 Gap=     0.029 Goal=   None    Shift=    0.000
 RMSDP=1.37D-04 MaxDP=8.34D-03 DE=-2.66D-06 OVMax= 1.49D-02

 Cycle  11  Pass 1  IDiag  1:
 E= -649.167298662035     Delta-E=       -0.000013243759 Rises=F Damp=F
 DIIS: error= 1.35D-04 at cycle  11 NSaved=   3.
 NSaved= 3 IEnMin= 3 EnMin= -649.167298662035     IErMin= 3 ErrMin= 1.35D-04
 ErrMax= 1.35D-04  0.00D+00 EMaxC= 1.00D-01 BMatC= 2.54D-06 BMatP= 3.70D-06
 IDIUse=3 WtCom= 9.99D-01 WtEn= 1.35D-03
 Coeff-Com: -0.741D+01 0.802D+01 0.390D+00
 Coeff-En:   0.000D+00 0.409D+00 0.591D+00
 Coeff:     -0.740D+01 0.801D+01 0.390D+00
 Gap=     0.029 Goal=   None    Shift=    0.000
 RMSDP=6.11D-05 MaxDP=3.69D-03 DE=-1.32D-05 OVMax= 6.66D-03

 Cycle  12  Pass 1  IDiag  1:
 E= -649.167314393556     Delta-E=       -0.000015731521 Rises=F Damp=F
 DIIS: error= 5.47D-06 at cycle  12 NSaved=   4.
 NSaved= 4 IEnMin= 4 EnMin= -649.167314393556     IErMin= 4 ErrMin= 5.47D-06
 ErrMax= 5.47D-06  0.00D+00 EMaxC= 1.00D-01 BMatC= 3.61D-09 BMatP= 2.54D-06
 IDIUse=1 WtCom= 1.00D+00 WtEn= 0.00D+00
 Coeff-Com: -0.180D+01 0.194D+01 0.108D+00 0.753D+00
 Coeff:     -0.180D+01 0.194D+01 0.108D+00 0.753D+00
 Gap=     0.029 Goal=   None    Shift=    0.000
 RMSDP=3.87D-06 MaxDP=2.20D-04 DE=-1.57D-05 OVMax= 3.53D-04

 Cycle  13  Pass 1  IDiag  1:
 E= -649.167314420682     Delta-E=       -0.000000027127 Rises=F Damp=F
 DIIS: error= 1.50D-06 at cycle  13 NSaved=   5.
 NSaved= 5 IEnMin= 5 EnMin= -649.167314420682     IErMin= 5 ErrMin= 1.50D-06
 ErrMax= 1.50D-06  0.00D+00 EMaxC= 1.00D-01 BMatC= 2.81D-10 BMatP= 3.61D-09
 IDIUse=1 WtCom= 1.00D+00 WtEn= 0.00D+00
 Coeff-Com:  0.448D+00-0.483D+00-0.222D-01 0.194D+00 0.863D+00
 Coeff:      0.448D+00-0.483D+00-0.222D-01 0.194D+00 0.863D+00
 Gap=     0.029 Goal=   None    Shift=    0.000
 RMSDP=1.31D-06 MaxDP=5.10D-05 DE=-2.71D-08 OVMax= 8.85D-05

 Cycle  14  Pass 1  IDiag  1:
 E= -649.167314423036     Delta-E=       -0.000000002354 Rises=F Damp=F
 DIIS: error= 3.28D-07 at cycle  14 NSaved=   6.
 NSaved= 6 IEnMin= 6 EnMin= -649.167314423036     IErMin= 6 ErrMin= 3.28D-07
 ErrMax= 3.28D-07  0.00D+00 EMaxC= 1.00D-01 BMatC= 1.17D-11 BMatP= 2.81D-10
 IDIUse=1 WtCom= 1.00D+00 WtEn= 0.00D+00
 Coeff-Com:  0.259D+00-0.280D+00-0.134D-01 0.250D-01 0.270D+00 0.739D+00
 Coeff:      0.259D+00-0.280D+00-0.134D-01 0.250D-01 0.270D+00 0.739D+00
 Gap=     0.029 Goal=   None    Shift=    0.000
 RMSDP=1.91D-07 MaxDP=9.47D-06 DE=-2.35D-09 OVMax= 1.54D-05

 Cycle  15  Pass 1  IDiag  1:
 E= -649.167314423115     Delta-E=       -0.000000000079 Rises=F Damp=F
 DIIS: error= 6.14D-08 at cycle  15 NSaved=   7.
 NSaved= 7 IEnMin= 7 EnMin= -649.167314423115     IErMin= 7 ErrMin= 6.14D-08
 ErrMax= 6.14D-08  0.00D+00 EMaxC= 1.00D-01 BMatC= 1.74D-13 BMatP= 1.17D-11
 IDIUse=1 WtCom= 1.00D+00 WtEn= 0.00D+00
 Coeff-Com: -0.112D-01 0.123D-01 0.721D-03-0.600D-02-0.326D-01 0.429D-01
 Coeff-Com:  0.994D+00
 Coeff:     -0.112D-01 0.123D-01 0.721D-03-0.600D-02-0.326D-01 0.429D-01
 Coeff:      0.994D+00
 Gap=     0.029 Goal=   None    Shift=    0.000
 RMSDP=3.03D-08 MaxDP=8.51D-07 DE=-7.91D-11 OVMax= 1.90D-06

 Cycle  16  Pass 1  IDiag  1:
 E= -649.167314423115     Delta-E=        0.000000000000 Rises=F Damp=F
 DIIS: error= 7.04D-09 at cycle  16 NSaved=   8.
 NSaved= 8 IEnMin= 7 EnMin= -649.167314423115     IErMin= 8 ErrMin= 7.04D-09
 ErrMax= 7.04D-09  0.00D+00 EMaxC= 1.00D-01 BMatC= 6.23D-15 BMatP= 1.74D-13
 IDIUse=1 WtCom= 1.00D+00 WtEn= 0.00D+00
 Coeff-Com: -0.113D-01 0.122D-01 0.566D-03-0.184D-02-0.151D-01-0.197D-01
 Coeff-Com:  0.189D+00 0.846D+00
 Coeff:     -0.113D-01 0.122D-01 0.566D-03-0.184D-02-0.151D-01-0.197D-01
 Coeff:      0.189D+00 0.846D+00
 Gap=     0.029 Goal=   None    Shift=    0.000
 RMSDP=7.94D-09 MaxDP=2.56D-07 DE= 0.00D+00 OVMax= 2.67D-07

 SCF Done:  E(RB3LYP) =  -649.167314423     A.U. after   16 cycles
            NFock= 16  Conv=0.79D-08     -V/T= 2.0029
 KE= 6.473076907390D+02 PE=-1.691342784189D+03 EE= 3.286492712616D+02
 Leave Link  502 at Tue Aug  8 11:07:20 2023, MaxMem=  1610612736 cpu:              20.5 elap:               1.5
 (Enter /home/sekinelabo/g16/l601.exe)
 Copying SCF densities to generalized density rwf, IOpCl= 0 IROHF=0.

 **********************************************************************

            Population analysis using the SCF Density.

 **********************************************************************

 Orbital symmetries:
       Occupied  (A) (A) (A) (A) (A) (A) (A) (A) (A) (A) (A) (A)
                 (A) (A) (A) (A) (A) (A) (A) (A) (A) (A)
       Virtual   (A) (A) (A) (A) (A) (A) (A) (A) (A) (A) (A) (A)
                 (A) (A) (A) (A) (A) (A) (A) (A) (A) (A) (A) (A)
                 (A) (A) (A) (A) (A) (A) (A) (A) (A) (A) (A) (A)
                 (A) (A) (A) (A) (A) (A) (A) (A) (A) (A) (A) (A)
                 (A) (A) (A) (A) (A) (A) (A) (A) (A) (A) (A) (A)
                 (A) (A) (A) (A) (A) (A) (A) (A) (A) (A) (A) (A)
                 (A) (A) (A) (A) (A) (A) (A) (A) (A) (A) (A) (A)
                 (A) (A) (A) (A) (A) (A) (A) (A) (A) (A) (A) (A)
                 (A) (A)
 The electronic state is 1-A.
 Alpha  occ. eigenvalues --  -38.46653 -38.46568 -38.44478 -38.44358  -2.22321
 Alpha  occ. eigenvalues --   -2.22236  -2.20321  -2.20190  -1.15997  -1.15996
 Alpha  occ. eigenvalues --   -1.15966  -1.15913  -1.15912  -1.15878  -1.14277
 Alpha  occ. eigenvalues --   -1.13949  -1.13949  -1.13812  -1.13810  -1.13707
 Alpha  occ. eigenvalues --   -0.13664  -0.11643
 Alpha virt. eigenvalues --   -0.08713  -0.05184  -0.02885  -0.02773  -0.02143
 Alpha virt. eigenvalues --   -0.02009  -0.01805  -0.01036  -0.00743  -0.00240
 Alpha virt. eigenvalues --   -0.00004   0.00855   0.00908   0.00943   0.01040
 Alpha virt. eigenvalues --    0.01274   0.01314   0.01687   0.01707   0.01756
 Alpha virt. eigenvalues --    0.01882   0.02041   0.02116   0.02413   0.02730
 Alpha virt. eigenvalues --    0.02895   0.03050   0.03482   0.03765   0.05018
 Alpha virt. eigenvalues --    0.07223   0.07230   0.07320   0.07703   0.07869
 Alpha virt. eigenvalues --    0.07922   0.08210   0.08521   0.08895   0.09283
 Alpha virt. eigenvalues --    0.10018   0.10093   0.10530   0.11270   0.11786
 Alpha virt. eigenvalues --    0.16286   0.29667   0.29765   0.31794   0.31849
 Alpha virt. eigenvalues --    0.32309   0.33434   0.34020   0.34038   0.34084
 Alpha virt. eigenvalues --    0.34163   0.34295   0.34416   0.34561   0.35607
 Alpha virt. eigenvalues --    0.36032   0.38936   0.38983   0.41646   0.41779
 Alpha virt. eigenvalues --    0.42247   0.42573   0.42794   0.43032   0.43152
 Alpha virt. eigenvalues --    0.43595   0.44311   0.44752   0.45865   0.49118
 Alpha virt. eigenvalues --    0.52528   0.53012   0.81910   1.99960   2.01134
 Alpha virt. eigenvalues --    2.05859   2.10996   4.41848   4.41909   4.42020
 Alpha virt. eigenvalues --    4.42612   4.42804   4.43125   4.43222   4.43499
 Alpha virt. eigenvalues --    4.44664   4.46909   4.47487   4.75530  96.18883
 Alpha virt. eigenvalues --   96.20309  96.25743  96.34047
          Condensed to atoms (all electrons):
               1          2          3          4
     1  Na  10.973931   0.290917  -0.022804  -0.011779
     2  Na   0.290917  10.571907  -0.076244  -0.008567
     3  Na  -0.022804  -0.076244  10.946261   0.140525
     4  Na  -0.011779  -0.008567   0.140525  10.883804
 Mulliken charges:
               1
     1  Na  -0.230266
     2  Na   0.221987
     3  Na   0.012262
     4  Na  -0.003983
 Sum of Mulliken charges =  -0.00000
 Mulliken charges with hydrogens summed into heavy atoms:
               1
     1  Na  -0.230266
     2  Na   0.221987
     3  Na   0.012262
     4  Na  -0.003983
 Electronic spatial extent (au):  <R**2>=           3960.3657
 Charge=             -0.0000 electrons
 Dipole moment (field-independent basis, Debye):
    X=             -0.0042    Y=              0.0181    Z=             -0.0802  Tot=              0.0823
 Quadrupole moment (field-independent basis, Debye-Ang):
   XX=            -22.8397   YY=            -43.0952   ZZ=            -45.8644
   XY=              5.9165   XZ=             -1.4793   YZ=             -0.4523
 Traceless Quadrupole moment (field-independent basis, Debye-Ang):
   XX=             14.4267   YY=             -5.8287   ZZ=             -8.5980
   XY=              5.9165   XZ=             -1.4793   YZ=             -0.4523
 Octapole moment (field-independent basis, Debye-Ang**2):
  XXX=             -5.7870  YYY=              0.7770  ZZZ=             -0.3031  XYY=              3.5595
  XXY=            -22.3498  XXZ=            -22.0024  XZZ=             10.3947  YZZ=             -0.7540
  YYZ=              0.3671  XYZ=             -2.2569
 Hexadecapole moment (field-independent basis, Debye-Ang**3):
 XXXX=          -4052.2396 YYYY=           -380.0110 ZZZZ=           -218.2663 XXXY=            374.3141
 XXXZ=            -96.6382 YYYX=             23.0397 YYYZ=             -2.8864 ZZZX=             -8.0528
 ZZZY=             -3.0202 XXYY=          -1139.0595 XXZZ=          -1131.6776 YYZZ=           -100.7272
 XXYZ=             -1.8001 YYXZ=             -1.0503 ZZXY=              8.4700
 N-N= 6.621850776544D+01 E-N=-1.691342783925D+03  KE= 6.473076907390D+02
 No NMR shielding tensors so no spin-rotation constants.
 Leave Link  601 at Tue Aug  8 11:07:20 2023, MaxMem=  1610612736 cpu:               0.9 elap:               0.1
 (Enter /home/sekinelabo/g16/l701.exe)
 ... and contract with generalized density number  0.
 Compute integral first derivatives.
 Leave Link  701 at Tue Aug  8 11:07:20 2023, MaxMem=  1610612736 cpu:               1.2 elap:               0.1
 (Enter /home/sekinelabo/g16/l702.exe)
 L702 exits ... SP integral derivatives will be done elsewhere.
 Leave Link  702 at Tue Aug  8 11:07:20 2023, MaxMem=  1610612736 cpu:               0.4 elap:               0.0
 (Enter /home/sekinelabo/g16/l703.exe)
 Integral derivatives from FoFJK, PRISM(SPDF).
 Compute integral first derivatives, UseDBF=F ICtDFT=           0.
 Calling FoFJK, ICntrl=      2127 FMM=F ISym2X=0 I1Cent= 0 IOpClX= 0 NMat=1 NMatS=1 NMatT=0.
 FoFJK:  IHMeth= 1 ICntrl=    2127 DoSepK=F KAlg= 0 I1Cent=           0 FoldK=F
 IRaf=         0 NMat=       1 IRICut=       1 DoRegI=T DoRafI=F ISym2E= 0 IDoP0=0 IntGTp=1.
 FoFCou: FMM=F IPFlag=           0 FMFlag=      100000 FMFlg1=         800
         NFxFlg=           0 DoJE=F BraDBF=F KetDBF=F FulRan=T
         wScrn=  0.000000 ICntrl=      2127 IOpCl=  0 I1Cent=           0 NGrid=           0
         NMat0=    1 NMatS0=      1 NMatT0=    0 NMatD0=    1 NMtDS0=    0 NMtDT0=    0
 Symmetry not used in FoFCou.
 Leave Link  703 at Tue Aug  8 11:07:20 2023, MaxMem=  1610612736 cpu:               5.2 elap:               0.3
 (Enter /home/sekinelabo/g16/l716.exe)
 Dipole        =-1.63893139D-03 7.11621136D-03-3.15427465D-02
 ***** Axes restored to original set *****
 -------------------------------------------------------------------
 Center     Atomic                   Forces (Hartrees/Bohr)
 Number     Number              X              Y              Z
 -------------------------------------------------------------------
      1       11           0.005902280   -0.000024015    0.007858437
      2       11          -0.005867363    0.000017153   -0.007007534
      3       11           0.003286771   -0.001414027    0.002702755
      4       11          -0.003321688    0.001420889   -0.003553658
 -------------------------------------------------------------------
 Cartesian Forces:  Max     0.007858437 RMS     0.004338899
 Z-matrix is all fixed cartesians, so copy forces.
 Force constants in Cartesian coordinates: 
                1             2             3             4             5 
      1  0.236138D-01
      2  0.000000D+00  0.000000D+00
      3  0.284623D-01  0.000000D+00  0.343063D-01
      4 -0.236138D-01  0.000000D+00 -0.284623D-01  0.236138D-01
      5  0.000000D+00  0.000000D+00  0.000000D+00  0.000000D+00  0.000000D+00
      6 -0.284623D-01  0.000000D+00 -0.343063D-01  0.284623D-01  0.000000D+00
      7  0.000000D+00  0.000000D+00  0.000000D+00  0.000000D+00  0.000000D+00
      8  0.000000D+00  0.000000D+00  0.000000D+00  0.000000D+00  0.000000D+00
      9  0.000000D+00  0.000000D+00  0.000000D+00  0.000000D+00  0.000000D+00
     10  0.000000D+00  0.000000D+00  0.000000D+00  0.000000D+00  0.000000D+00
     11  0.000000D+00  0.000000D+00  0.000000D+00  0.000000D+00  0.000000D+00
     12  0.000000D+00  0.000000D+00  0.000000D+00  0.000000D+00  0.000000D+00
                6             7             8             9            10 
      6  0.343063D-01
      7  0.000000D+00  0.100000D+01
      8  0.000000D+00  0.000000D+00  0.100000D+01
      9  0.000000D+00  0.000000D+00  0.000000D+00  0.100000D+01
     10  0.000000D+00  0.000000D+00  0.000000D+00  0.000000D+00  0.100000D+01
     11  0.000000D+00  0.000000D+00  0.000000D+00  0.000000D+00  0.000000D+00
     12  0.000000D+00  0.000000D+00  0.000000D+00  0.000000D+00  0.000000D+00
               11            12 
     11  0.100000D+01
     12  0.000000D+00  0.100000D+01
 Leave Link  716 at Tue Aug  8 11:07:20 2023, MaxMem=  1610612736 cpu:               0.3 elap:               0.0
 (Enter /home/sekinelabo/g16/l103.exe)

 GradGradGradGradGradGradGradGradGradGradGradGradGradGradGradGradGradGrad
 Berny optimization.
 Search for a local minimum.
 Step number   1 out of a maximum of    2
 All quantities printed in internal units (Hartrees-Bohrs-Radians)
 Second derivative matrix not updated -- first step.
 The second derivative matrix:
                          X1        Y1        Z1        X2        Y2
           X1           0.02361
           Y1           0.00000   0.00000
           Z1           0.02846  -0.00000   0.03431
           X2          -0.02361  -0.00000  -0.02846   0.02361
           Y2           0.00000  -0.00000  -0.00000   0.00000   0.00000
           Z2          -0.02846  -0.00000  -0.03431   0.02846  -0.00000
           X3           0.00000   0.00000   0.00000   0.00000   0.00000
           Y3           0.00000   0.00000   0.00000   0.00000   0.00000
           Z3           0.00000   0.00000   0.00000   0.00000   0.00000
           X4           0.00000   0.00000   0.00000   0.00000   0.00000
           Y4           0.00000   0.00000   0.00000   0.00000   0.00000
           Z4           0.00000   0.00000   0.00000   0.00000   0.00000
                          Z2        X3        Y3        Z3        X4
           Z2           0.03431
           X3           0.00000   1.00000
           Y3           0.00000   0.00000   1.00000
           Z3           0.00000  -0.00000   0.00000   1.00000
           X4           0.00000   0.00000   0.00000   0.00000   1.00000
           Y4           0.00000   0.00000   0.00000   0.00000   0.00000
           Z4           0.00000   0.00000   0.00000   0.00000  -0.00000
                          Y4        Z4
           Y4           1.00000
           Z4           0.00000   1.00000
 ITU=  0
     Eigenvalues ---    0.02085   0.11584   0.14382   0.50000   0.91715
     Eigenvalues ---    1.00000
 Angle between quadratic step and forces=  24.23 degrees.
 Linear search not attempted -- first point.
 B after Tr=     0.000000    0.000000    0.000000
         Rot=    1.000000    0.000000    0.000000    0.000000 Ang=   0.00 deg.
 Variable       Old X    -DE/DX   Delta X   Delta X   Delta X     New X
                                 (Linear)    (Quad)   (Total)
    X1        0.00000   0.00590   0.00000   0.04307   0.04307   0.04307
    Y1        0.00000  -0.00002   0.00000  -0.00330  -0.00330  -0.00330
    Z1       -0.00000   0.00786   0.00000   0.07077   0.07077   0.07077
    X2       -3.30307  -0.00587   0.00000  -0.04557  -0.04557  -3.34863
    Y2       -0.00000   0.00002   0.00000   0.00240   0.00240   0.00240
    Z2       -3.98127  -0.00701   0.00000  -0.06832  -0.06832  -4.04959
    X3       -0.00000   0.00329   0.00000   0.00429   0.00429   0.00429
    Y3        0.00000  -0.00141   0.00000  -0.00099  -0.00099  -0.00099
    Z3       10.17714   0.00270   0.00000   0.00214   0.00214  10.17928
    X4        7.03012  -0.00332   0.00000  -0.00179  -0.00179   7.02832
    Y4       -2.99038   0.00142   0.00000   0.00189   0.00189  -2.98849
    Z4       17.65509  -0.00355   0.00000  -0.00459  -0.00459  17.65050
         Item               Value     Threshold  Converged?
 Maximum Force            0.007858     0.000450     NO 
 RMS     Force            0.004339     0.000300     NO 
 Maximum Displacement     0.070771     0.001800     NO 
 RMS     Displacement     0.033759     0.001200     NO 
 Predicted change in Energy=-8.014112D-04
 GradGradGradGradGradGradGradGradGradGradGradGradGradGradGradGradGradGrad

 Leave Link  103 at Tue Aug  8 11:07:20 2023, MaxMem=  1610612736 cpu:               0.2 elap:               0.0
 (Enter /home/sekinelabo/g16/l9999.exe)
 1\1\GINC-SEKINELABO-XA7R-R37\Force\RB3LYP\6-311+G(d)\Na4\SEKINELABO\08
 -Aug-2023\0\\#p B3LYP/6-311+g(d) force\\Test\\0,1\Na,0.,0.,0.\Na,-1.74
 79079867,0.,-2.1067992255\Na,0.,0.,5.3855099447\Na,3.7201788828,-1.582
 4418326,9.342673865\\Version=ES64L-G16RevB.01\State=1-A\HF=-649.167314
 4\RMSD=7.937e-09\RMSF=4.339e-03\Dipole=-0.0175002,-0.0266524,0.0056272
 \Quadrupole=0.8747044,-5.9656694,5.090965,-1.8960566,8.3231709,-2.0021
 767\PG=C01 [X(Na4)]\\@


 THE VALUE OF PHILOSOPHY IS, IN FACT, TO BE SOUGHT LARGELY IN ITS
 VERY UNCERTAINTY.  THE MAN WHO HAS NO TINCTURE OF PHILOSOPHY GOES
 THROUGH LIFE IMPRISONED IN THE PREJUDICES DERIVED FROM COMMON SENSE,
 FROM THE HABITUAL BELIEFS OF HIS AGE OR HIS NATION, AND FROM
 CONVICTIONS WHICH HAVE GROWN UP IN HIS MIND WITHOUT THE CO-OPERATION
 OR CONSENT OF HIS DELIBERATE REASON.  TO SUCH A MAN THE WORLD TENDS
 TO BE DEFINITE, FINITE, OBVIOUS; COMMON OBJECTS ROUSE NO QUESTIONS,
 AND UNFAMILIAR POSSIBILITIES ARE CONTEMPTUOUSLY REJECTED.

                             -- BERTRAND RUSSELL
 Job cpu time:       0 days  0 hours  0 minutes 34.8 seconds.
 Elapsed time:       0 days  0 hours  0 minutes  2.4 seconds.
 File lengths (MBytes):  RWF=     10 Int=      0 D2E=      0 Chk=      2 Scr=      1
 Normal termination of Gaussian 16 at Tue Aug  8 11:07:20 2023.
