 Initial command:
 /home/sekinelabo/g16/l1.exe "/home/sekinelabo/g16temp/Gau-20140.inp" -scrdir="/home/sekinelabo/g16temp/"
 Entering Link 1 = /home/sekinelabo/g16/l1.exe PID=     21110.
  
 Copyright (c) 1988-2017, Gaussian, Inc.  All Rights Reserved.
  
 This is part of the Gaussian(R) 16 program.  It is based on
 the Gaussian(R) 09 system (copyright 2009, Gaussian, Inc.),
 the Gaussian(R) 03 system (copyright 2003, Gaussian, Inc.),
 the Gaussian(R) 98 system (copyright 1998, Gaussian, Inc.),
 the Gaussian(R) 94 system (copyright 1995, Gaussian, Inc.),
 the Gaussian 92(TM) system (copyright 1992, Gaussian, Inc.),
 the Gaussian 90(TM) system (copyright 1990, Gaussian, Inc.),
 the Gaussian 88(TM) system (copyright 1988, Gaussian, Inc.),
 the Gaussian 86(TM) system (copyright 1986, Carnegie Mellon
 University), and the Gaussian 82(TM) system (copyright 1983,
 Carnegie Mellon University). Gaussian is a federally registered
 trademark of Gaussian, Inc.
  
 This software contains proprietary and confidential information,
 including trade secrets, belonging to Gaussian, Inc.
  
 This software is provided under written license and may be
 used, copied, transmitted, or stored only in accord with that
 written license.
  
 The following legend is applicable only to US Government
 contracts under FAR:
  
                    RESTRICTED RIGHTS LEGEND
  
 Use, reproduction and disclosure by the US Government is
 subject to restrictions as set forth in subparagraphs (a)
 and (c) of the Commercial Computer Software - Restricted
 Rights clause in FAR 52.227-19.
  
 Gaussian, Inc.
 340 Quinnipiac St., Bldg. 40, Wallingford CT 06492
  
  
 ---------------------------------------------------------------
 Warning -- This program may not be used in any manner that
 competes with the business of Gaussian, Inc. or will provide
 assistance to any competitor of Gaussian, Inc.  The licensee
 of this program is prohibited from giving any competitor of
 Gaussian, Inc. access to this program.  By using this program,
 the user acknowledges that Gaussian, Inc. is engaged in the
 business of creating and licensing software in the field of
 computational chemistry and represents and warrants to the
 licensee that it is not a competitor of Gaussian, Inc. and that
 it will not use this program in any manner prohibited above.
 ---------------------------------------------------------------
  

 Cite this work as:
 Gaussian 16, Revision B.01,
 M. J. Frisch, G. W. Trucks, H. B. Schlegel, G. E. Scuseria, 
 M. A. Robb, J. R. Cheeseman, G. Scalmani, V. Barone, 
 G. A. Petersson, H. Nakatsuji, X. Li, M. Caricato, A. V. Marenich, 
 J. Bloino, B. G. Janesko, R. Gomperts, B. Mennucci, H. P. Hratchian, 
 J. V. Ortiz, A. F. Izmaylov, J. L. Sonnenberg, D. Williams-Young, 
 F. Ding, F. Lipparini, F. Egidi, J. Goings, B. Peng, A. Petrone, 
 T. Henderson, D. Ranasinghe, V. G. Zakrzewski, J. Gao, N. Rega, 
 G. Zheng, W. Liang, M. Hada, M. Ehara, K. Toyota, R. Fukuda, 
 J. Hasegawa, M. Ishida, T. Nakajima, Y. Honda, O. Kitao, H. Nakai, 
 T. Vreven, K. Throssell, J. A. Montgomery, Jr., J. E. Peralta, 
 F. Ogliaro, M. J. Bearpark, J. J. Heyd, E. N. Brothers, K. N. Kudin, 
 V. N. Staroverov, T. A. Keith, R. Kobayashi, J. Normand, 
 K. Raghavachari, A. P. Rendell, J. C. Burant, S. S. Iyengar, 
 J. Tomasi, M. Cossi, J. M. Millam, M. Klene, C. Adamo, R. Cammi, 
 J. W. Ochterski, R. L. Martin, K. Morokuma, O. Farkas, 
 J. B. Foresman, and D. J. Fox, Gaussian, Inc., Wallingford CT, 2016.
 
 ******************************************
 Gaussian 16:  ES64L-G16RevB.01 20-Dec-2017
                23-Aug-2023 
 ******************************************
 %NProcShared=16
 Will use up to   16 processors via shared memory.
 %mem=12GB
 %Chk=checkpoint.chk
 -------------------------
 #p B3LYP/6-311+g(d) force
 -------------------------
 1/10=7,30=1,38=1/1,3;
 2/12=2,17=6,18=5,40=1/2;
 3/5=4,6=6,7=11,11=2,25=1,30=1,71=1,74=-5/1,2,3;
 4//1;
 5/5=2,38=5/2;
 6/7=2,8=2,9=2,10=2,28=1/1;
 7/29=1/1,2,3,16;
 1/10=7,30=1/3;
 99//99;
 Leave Link    1 at Wed Aug 23 10:07:48 2023, MaxMem=  1610612736 cpu:               0.2 elap:               0.0
 (Enter /home/sekinelabo/g16/l101.exe)


 Symbolic Z-matrix:
 Charge =  0 Multiplicity = 1
 Na                    0.        0.        0. 
 Na                   -3.09908   0.        1.10269 
 Na                    0.        0.        3.30428 
 Na                    0.6566   -0.67061   8.18177 
 
 ITRead=  0  0  0  0
 MicOpt= -1 -1 -1 -1
 NAtoms=      4 NQM=        4 NQMF=       0 NMMI=      0 NMMIF=      0
                NMic=       0 NMicF=      0.
                    Isotopes and Nuclear Properties:
 (Nuclear quadrupole moments (NQMom) in fm**2, nuclear magnetic moments (NMagM)
  in nuclear magnetons)

  Atom         1           2           3           4
 IAtWgt=          23          23          23          23
 AtmWgt=  22.9897697  22.9897697  22.9897697  22.9897697
 NucSpn=           3           3           3           3
 AtZEff=  -0.0000000  -0.0000000  -0.0000000  -0.0000000
 NQMom=   10.4000000  10.4000000  10.4000000  10.4000000
 NMagM=    2.2175200   2.2175200   2.2175200   2.2175200
 AtZNuc=  11.0000000  11.0000000  11.0000000  11.0000000
 Leave Link  101 at Wed Aug 23 10:07:48 2023, MaxMem=  1610612736 cpu:               1.5 elap:               0.1
 (Enter /home/sekinelabo/g16/l103.exe)

 GradGradGradGradGradGradGradGradGradGradGradGradGradGradGradGradGradGrad
 Berny optimization.
 Initialization pass.
 Trust Radius=3.00D-01 FncErr=1.00D-07 GrdErr=1.00D-07 EigMax=2.50D+02 EigMin=1.00D-04
 Number of steps in this run=      2 maximum allowed number of steps=      2.
 GradGradGradGradGradGradGradGradGradGradGradGradGradGradGradGradGradGrad

 Leave Link  103 at Wed Aug 23 10:07:48 2023, MaxMem=  1610612736 cpu:               0.2 elap:               0.0
 (Enter /home/sekinelabo/g16/l202.exe)
                          Input orientation:                          
 ---------------------------------------------------------------------
 Center     Atomic      Atomic             Coordinates (Angstroms)
 Number     Number       Type             X           Y           Z
 ---------------------------------------------------------------------
      1         11           0        0.000000    0.000000    0.000000
      2         11           0       -3.099081    0.000000    1.102692
      3         11           0        0.000000    0.000000    3.304276
      4         11           0        0.656603   -0.670605    8.181768
 ---------------------------------------------------------------------
                    Distance matrix (angstroms):
                    1          2          3          4
     1  Na   0.000000
     2  Na   3.289412   0.000000
     3  Na   3.304276   3.801483   0.000000
     4  Na   8.235421   8.041653   4.966968   0.000000
 Stoichiometry    Na4
 Framework group  C1[X(Na4)]
 Deg. of freedom     6
 Full point group                 C1      NOp   1
 Largest Abelian subgroup         C1      NOp   1
 Largest concise Abelian subgroup C1      NOp   1
                         Standard orientation:                         
 ---------------------------------------------------------------------
 Center     Atomic      Atomic             Coordinates (Angstroms)
 Number     Number       Type             X           Y           Z
 ---------------------------------------------------------------------
      1         11           0        2.861985   -1.451035   -0.096282
      2         11           0        2.654857    1.830846   -0.015153
      3         11           0       -0.304103   -0.547534    0.182670
      4         11           0       -5.212739    0.167724   -0.071236
 ---------------------------------------------------------------------
 Rotational constants (GHZ):           3.7684529           0.5166062           0.4552264
 Leave Link  202 at Wed Aug 23 10:07:48 2023, MaxMem=  1610612736 cpu:               0.0 elap:               0.0
 (Enter /home/sekinelabo/g16/l301.exe)
 Standard basis: 6-311+G(d) (5D, 7F)
 Ernie: Thresh=  0.10000D-02 Tol=  0.10000D-05 Strict=F.
 There are   124 symmetry adapted cartesian basis functions of A   symmetry.
 There are   120 symmetry adapted basis functions of A   symmetry.
   120 basis functions,   200 primitive gaussians,   124 cartesian basis functions
    22 alpha electrons       22 beta electrons
       nuclear repulsion energy        84.3158264074 Hartrees.
 IExCor=  402 DFT=T Ex+Corr=B3LYP ExCW=0 ScaHFX=  0.200000
 ScaDFX=  0.800000  0.720000  1.000000  0.810000 ScalE2=  1.000000  1.000000
 IRadAn=      5 IRanWt=     -1 IRanGd=            0 ICorTp=0 IEmpDi=  4
 NAtoms=    4 NActive=    4 NUniq=    4 SFac= 1.00D+00 NAtFMM=   60 NAOKFM=F Big=F
 Integral buffers will be    131072 words long.
 Raffenetti 2 integral format.
 Two-electron integral symmetry is turned on.
 Leave Link  301 at Wed Aug 23 10:07:48 2023, MaxMem=  1610612736 cpu:               0.3 elap:               0.0
 (Enter /home/sekinelabo/g16/l302.exe)
 NPDir=0 NMtPBC=     1 NCelOv=     1 NCel=       1 NClECP=     1 NCelD=      1
         NCelK=      1 NCelE2=     1 NClLst=     1 CellRange=     0.0.
 One-electron integrals computed using PRISM.
 One-electron integral symmetry used in STVInt
 NBasis=   120 RedAO= T EigKep=  1.82D-05  NBF=   120
 NBsUse=   120 1.00D-06 EigRej= -1.00D+00 NBFU=   120
 Precomputing XC quadrature grid using
 IXCGrd= 4 IRadAn=           5 IRanWt=          -1 IRanGd=           0 AccXCQ= 0.00D+00.
 Generated NRdTot=       0 NPtTot=           0 NUsed=           0 NTot=          32
 NSgBfM=   117   117   117   117   117 MxSgAt=     4 MxSgA2=     4.
 Leave Link  302 at Wed Aug 23 10:07:48 2023, MaxMem=  1610612736 cpu:               1.3 elap:               0.1
 (Enter /home/sekinelabo/g16/l303.exe)
 DipDrv:  MaxL=1.
 Leave Link  303 at Wed Aug 23 10:07:48 2023, MaxMem=  1610612736 cpu:               0.3 elap:               0.0
 (Enter /home/sekinelabo/g16/l401.exe)
 ExpMin= 7.60D-03 ExpMax= 3.62D+04 ExpMxC= 1.21D+03 IAcc=3 IRadAn=         5 AccDes= 0.00D+00
 Harris functional with IExCor=  402 and IRadAn=       5 diagonalized for initial guess.
 HarFok:  IExCor=  402 AccDes= 0.00D+00 IRadAn=         5 IDoV= 1 UseB2=F ITyADJ=14
 ICtDFT=  3500011 ScaDFX=  1.000000  1.000000  1.000000  1.000000
 FoFCou: FMM=F IPFlag=           0 FMFlag=      100000 FMFlg1=           0
         NFxFlg=           0 DoJE=T BraDBF=F KetDBF=T FulRan=T
         wScrn=  0.000000 ICntrl=       500 IOpCl=  0 I1Cent=   200000004 NGrid=           0
         NMat0=    1 NMatS0=      1 NMatT0=    0 NMatD0=    1 NMtDS0=    0 NMtDT0=    0
 Petite list used in FoFCou.
 Harris En= -649.061108401081    
 JPrj=0 DoOrth=F DoCkMO=F.
 Leave Link  401 at Wed Aug 23 10:07:49 2023, MaxMem=  1610612736 cpu:               1.9 elap:               0.1
 (Enter /home/sekinelabo/g16/l502.exe)
 Keep R1 ints in memory in canonical form, NReq=41581762.
 FoFCou: FMM=F IPFlag=           0 FMFlag=           0 FMFlg1=           0
         NFxFlg=           0 DoJE=F BraDBF=F KetDBF=F FulRan=T
         wScrn=  0.000000 ICntrl=       600 IOpCl=  0 I1Cent=           0 NGrid=           0
         NMat0=    1 NMatS0=   7260 NMatT0=    0 NMatD0=    1 NMtDS0=    0 NMtDT0=    0
 Symmetry not used in FoFCou.
 Two-electron integral symmetry not used.
 Closed shell SCF:
 Using DIIS extrapolation, IDIIS=  1040.
 NGot=  1610612736 LenX=  1584221380 LenY=  1584205563
 Requested convergence on RMS density matrix=1.00D-08 within 128 cycles.
 Requested convergence on MAX density matrix=1.00D-06.
 Requested convergence on             energy=1.00D-06.
 No special actions if energy rises.

 Cycle   1  Pass 1  IDiag  1:
 E= -649.156145488331    
 DIIS: error= 1.36D-02 at cycle   1 NSaved=   1.
 NSaved= 1 IEnMin= 1 EnMin= -649.156145488331     IErMin= 1 ErrMin= 1.36D-02
 ErrMax= 1.36D-02  0.00D+00 EMaxC= 1.00D-01 BMatC= 2.76D-02 BMatP= 2.76D-02
 IDIUse=3 WtCom= 8.64D-01 WtEn= 1.36D-01
 Coeff-Com:  0.100D+01
 Coeff-En:   0.100D+01
 Coeff:      0.100D+01
 Gap=    -0.022 Goal=   None    Shift=    0.000
 GapD=   -0.022 DampG=0.250 DampE=0.500 DampFc=0.2500 IDamp=-1.
 Damping current iteration by 2.50D-01
 RMSDP=1.06D-02 MaxDP=4.17D-01              OVMax= 9.24D-01

 Cycle   2  Pass 1  IDiag  1:
 E= -649.164487465447     Delta-E=       -0.008341977116 Rises=F Damp=T
 DIIS: error= 9.15D-03 at cycle   2 NSaved=   2.
 NSaved= 2 IEnMin= 2 EnMin= -649.164487465447     IErMin= 2 ErrMin= 9.15D-03
 ErrMax= 9.15D-03  0.00D+00 EMaxC= 1.00D-01 BMatC= 1.01D-02 BMatP= 2.76D-02
 IDIUse=3 WtCom= 9.08D-01 WtEn= 9.15D-02
 Coeff-Com: -0.916D+00 0.192D+01
 Coeff-En:   0.250D+00 0.750D+00
 Coeff:     -0.809D+00 0.181D+01
 Gap=     0.003 Goal=   None    Shift=    0.000
 RMSDP=7.79D-03 MaxDP=3.05D-01 DE=-8.34D-03 OVMax= 7.19D-01

 Cycle   3  Pass 1  IDiag  1:
 E= -649.102002127691     Delta-E=        0.062485337756 Rises=F Damp=F
 DIIS: error= 1.22D-02 at cycle   3 NSaved=   3.
 NSaved= 3 IEnMin= 2 EnMin= -649.164487465447     IErMin= 2 ErrMin= 9.15D-03
 ErrMax= 1.22D-02  0.00D+00 EMaxC= 1.00D-01 BMatC= 8.80D-03 BMatP= 1.01D-02
 IDIUse=3 WtCom= 8.78D-01 WtEn= 1.22D-01
 Rare condition: small coef for last iteration:  0.000D+00
 Coeff-Com: -0.672D+00 0.126D+01 0.415D+00
 Coeff-En:   0.201D+00 0.766D+00 0.324D-01
 Coeff:     -0.672D+00 0.126D+01 0.415D+00
 Gap=     0.054 Goal=   None    Shift=    0.000
 RMSDP=5.80D-03 MaxDP=3.62D-01 DE= 6.25D-02 OVMax= 5.11D-01

 Cycle   4  Pass 1  IDiag  1:
 E= -649.182585131728     Delta-E=       -0.080583004037 Rises=F Damp=F
 DIIS: error= 1.85D-03 at cycle   4 NSaved=   4.
 NSaved= 4 IEnMin= 4 EnMin= -649.182585131728     IErMin= 4 ErrMin= 1.85D-03
 ErrMax= 1.85D-03  0.00D+00 EMaxC= 1.00D-01 BMatC= 4.33D-04 BMatP= 8.80D-03
 IDIUse=3 WtCom= 9.82D-01 WtEn= 1.85D-02
 Coeff-Com: -0.164D+00 0.265D+00 0.138D+00 0.761D+00
 Coeff-En:   0.000D+00 0.000D+00 0.000D+00 0.100D+01
 Coeff:     -0.161D+00 0.261D+00 0.135D+00 0.766D+00
 Gap=     0.023 Goal=   None    Shift=    0.000
 RMSDP=2.00D-03 MaxDP=7.67D-02 DE=-8.06D-02 OVMax= 1.31D-01

 Cycle   5  Pass 1  IDiag  1:
 E= -649.182514583888     Delta-E=        0.000070547840 Rises=F Damp=F
 DIIS: error= 2.34D-03 at cycle   5 NSaved=   5.
 NSaved= 5 IEnMin= 4 EnMin= -649.182585131728     IErMin= 4 ErrMin= 1.85D-03
 ErrMax= 2.34D-03  0.00D+00 EMaxC= 1.00D-01 BMatC= 3.17D-04 BMatP= 4.33D-04
 IDIUse=3 WtCom= 9.77D-01 WtEn= 2.34D-02
 Coeff-Com: -0.960D-01 0.135D+00 0.212D-01 0.418D+00 0.522D+00
 Coeff-En:   0.000D+00 0.000D+00 0.000D+00 0.507D+00 0.493D+00
 Coeff:     -0.938D-01 0.132D+00 0.207D-01 0.420D+00 0.521D+00
 Gap=     0.024 Goal=   None    Shift=    0.000
 RMSDP=1.55D-03 MaxDP=5.59D-02 DE= 7.05D-05 OVMax= 8.23D-02

 Cycle   6  Pass 1  IDiag  1:
 E= -649.184488098888     Delta-E=       -0.001973515000 Rises=F Damp=F
 DIIS: error= 4.84D-04 at cycle   6 NSaved=   6.
 NSaved= 6 IEnMin= 6 EnMin= -649.184488098888     IErMin= 6 ErrMin= 4.84D-04
 ErrMax= 4.84D-04  0.00D+00 EMaxC= 1.00D-01 BMatC= 1.86D-05 BMatP= 3.17D-04
 IDIUse=3 WtCom= 9.95D-01 WtEn= 4.84D-03
 Coeff-Com: -0.287D-01 0.393D-01-0.917D-02 0.591D-01 0.226D+00 0.713D+00
 Coeff-En:   0.000D+00 0.000D+00 0.000D+00 0.000D+00 0.000D+00 0.100D+01
 Coeff:     -0.285D-01 0.391D-01-0.913D-02 0.588D-01 0.225D+00 0.715D+00
 Gap=     0.026 Goal=   None    Shift=    0.000
 RMSDP=3.08D-04 MaxDP=1.20D-02 DE=-1.97D-03 OVMax= 2.49D-02

 Cycle   7  Pass 1  IDiag  1:
 E= -649.184485691981     Delta-E=        0.000002406907 Rises=F Damp=F
 DIIS: error= 4.59D-04 at cycle   7 NSaved=   7.
 NSaved= 7 IEnMin= 6 EnMin= -649.184488098888     IErMin= 7 ErrMin= 4.59D-04
 ErrMax= 4.59D-04  0.00D+00 EMaxC= 1.00D-01 BMatC= 9.17D-06 BMatP= 1.86D-05
 IDIUse=3 WtCom= 9.95D-01 WtEn= 4.59D-03
 Coeff-Com: -0.229D-01 0.334D-01-0.106D-01 0.634D-02 0.622D-01 0.381D+00
 Coeff-Com:  0.551D+00
 Coeff-En:   0.000D+00 0.000D+00 0.000D+00 0.000D+00 0.000D+00 0.508D+00
 Coeff-En:   0.492D+00
 Coeff:     -0.228D-01 0.333D-01-0.105D-01 0.631D-02 0.619D-01 0.381D+00
 Coeff:      0.551D+00
 Gap=     0.025 Goal=   None    Shift=    0.000
 RMSDP=2.16D-04 MaxDP=5.95D-03 DE= 2.41D-06 OVMax= 1.09D-02

 Cycle   8  Pass 1  IDiag  1:
 E= -649.184562440701     Delta-E=       -0.000076748720 Rises=F Damp=F
 DIIS: error= 1.53D-04 at cycle   8 NSaved=   8.
 NSaved= 8 IEnMin= 8 EnMin= -649.184562440701     IErMin= 8 ErrMin= 1.53D-04
 ErrMax= 1.53D-04  0.00D+00 EMaxC= 1.00D-01 BMatC= 1.08D-06 BMatP= 9.17D-06
 IDIUse=3 WtCom= 9.98D-01 WtEn= 1.53D-03
 Coeff-Com: -0.568D-02 0.861D-02-0.132D-02-0.169D-01-0.356D-01-0.277D-01
 Coeff-Com: -0.171D+00 0.125D+01
 Coeff-En:   0.000D+00 0.000D+00 0.000D+00 0.000D+00 0.000D+00 0.000D+00
 Coeff-En:   0.000D+00 0.100D+01
 Coeff:     -0.568D-02 0.860D-02-0.132D-02-0.169D-01-0.355D-01-0.276D-01
 Coeff:     -0.171D+00 0.125D+01
 Gap=     0.025 Goal=   None    Shift=    0.000
 RMSDP=1.17D-04 MaxDP=4.72D-03 DE=-7.67D-05 OVMax= 5.07D-03

 Cycle   9  Pass 1  IDiag  1:
 E= -649.184571252530     Delta-E=       -0.000008811830 Rises=F Damp=F
 DIIS: error= 4.82D-05 at cycle   9 NSaved=   9.
 NSaved= 9 IEnMin= 9 EnMin= -649.184571252530     IErMin= 9 ErrMin= 4.82D-05
 ErrMax= 4.82D-05  0.00D+00 EMaxC= 1.00D-01 BMatC= 1.62D-07 BMatP= 1.08D-06
 IDIUse=1 WtCom= 1.00D+00 WtEn= 0.00D+00
 Coeff-Com: -0.778D-03 0.121D-02 0.830D-03-0.752D-02-0.227D-01-0.412D-01
 Coeff-Com: -0.181D+00 0.505D+00 0.746D+00
 Coeff:     -0.778D-03 0.121D-02 0.830D-03-0.752D-02-0.227D-01-0.412D-01
 Coeff:     -0.181D+00 0.505D+00 0.746D+00
 Gap=     0.025 Goal=   None    Shift=    0.000
 RMSDP=3.00D-05 MaxDP=9.23D-04 DE=-8.81D-06 OVMax= 2.38D-03

 Cycle  10  Pass 1  IDiag  1:
 E= -649.184572470761     Delta-E=       -0.000001218230 Rises=F Damp=F
 DIIS: error= 6.08D-06 at cycle  10 NSaved=  10.
 NSaved=10 IEnMin=10 EnMin= -649.184572470761     IErMin=10 ErrMin= 6.08D-06
 ErrMax= 6.08D-06  0.00D+00 EMaxC= 1.00D-01 BMatC= 4.95D-09 BMatP= 1.62D-07
 IDIUse=1 WtCom= 1.00D+00 WtEn= 0.00D+00
 Coeff-Com:  0.297D-03-0.401D-03 0.176D-03-0.427D-03 0.168D-02 0.198D-02
 Coeff-Com:  0.714D-02-0.853D-01 0.963D-01 0.979D+00
 Coeff:      0.297D-03-0.401D-03 0.176D-03-0.427D-03 0.168D-02 0.198D-02
 Coeff:      0.714D-02-0.853D-01 0.963D-01 0.979D+00
 Gap=     0.025 Goal=   None    Shift=    0.000
 RMSDP=1.39D-05 MaxDP=4.88D-04 DE=-1.22D-06 OVMax= 6.71D-04

 Cycle  11  Pass 1  IDiag  1:
 E= -649.184572498958     Delta-E=       -0.000000028198 Rises=F Damp=F
 DIIS: error= 5.78D-06 at cycle  11 NSaved=  11.
 NSaved=11 IEnMin=11 EnMin= -649.184572498958     IErMin=11 ErrMin= 5.78D-06
 ErrMax= 5.78D-06  0.00D+00 EMaxC= 1.00D-01 BMatC= 2.68D-09 BMatP= 4.95D-09
 IDIUse=1 WtCom= 1.00D+00 WtEn= 0.00D+00
 Coeff-Com:  0.147D-03-0.199D-03-0.102D-03-0.164D-03 0.325D-02 0.621D-02
 Coeff-Com:  0.321D-01-0.691D-01-0.757D-01 0.238D+00 0.866D+00
 Coeff:      0.147D-03-0.199D-03-0.102D-03-0.164D-03 0.325D-02 0.621D-02
 Coeff:      0.321D-01-0.691D-01-0.757D-01 0.238D+00 0.866D+00
 Gap=     0.025 Goal=   None    Shift=    0.000
 RMSDP=6.39D-06 MaxDP=2.06D-04 DE=-2.82D-08 OVMax= 5.11D-04

 Cycle  12  Pass 1  IDiag  1:
 E= -649.184572524940     Delta-E=       -0.000000025982 Rises=F Damp=F
 DIIS: error= 3.43D-06 at cycle  12 NSaved=  12.
 NSaved=12 IEnMin=12 EnMin= -649.184572524940     IErMin=12 ErrMin= 3.43D-06
 ErrMax= 3.43D-06  0.00D+00 EMaxC= 1.00D-01 BMatC= 6.61D-10 BMatP= 2.68D-09
 IDIUse=1 WtCom= 1.00D+00 WtEn= 0.00D+00
 Coeff-Com:  0.379D-04-0.481D-04-0.329D-04 0.108D-03 0.202D-03-0.431D-03
 Coeff-Com:  0.460D-02-0.113D-01-0.303D-01-0.648D-01 0.320D+00 0.782D+00
 Coeff:      0.379D-04-0.481D-04-0.329D-04 0.108D-03 0.202D-03-0.431D-03
 Coeff:      0.460D-02-0.113D-01-0.303D-01-0.648D-01 0.320D+00 0.782D+00
 Gap=     0.025 Goal=   None    Shift=    0.000
 RMSDP=2.14D-06 MaxDP=6.68D-05 DE=-2.60D-08 OVMax= 1.71D-04

 Cycle  13  Pass 1  IDiag  1:
 E= -649.184572531512     Delta-E=       -0.000000006571 Rises=F Damp=F
 DIIS: error= 1.12D-06 at cycle  13 NSaved=  13.
 NSaved=13 IEnMin=13 EnMin= -649.184572531512     IErMin=13 ErrMin= 1.12D-06
 ErrMax= 1.12D-06  0.00D+00 EMaxC= 1.00D-01 BMatC= 4.68D-11 BMatP= 6.61D-10
 IDIUse=1 WtCom= 1.00D+00 WtEn= 0.00D+00
 Coeff-Com: -0.468D-05 0.614D-05-0.572D-05 0.113D-03-0.134D-03-0.698D-03
 Coeff-Com: -0.183D-02 0.187D-02-0.397D-02-0.458D-01 0.362D-01 0.105D+00
 Coeff-Com:  0.909D+00
 Coeff:     -0.468D-05 0.614D-05-0.572D-05 0.113D-03-0.134D-03-0.698D-03
 Coeff:     -0.183D-02 0.187D-02-0.397D-02-0.458D-01 0.362D-01 0.105D+00
 Coeff:      0.909D+00
 Gap=     0.025 Goal=   None    Shift=    0.000
 RMSDP=5.88D-07 MaxDP=1.47D-05 DE=-6.57D-09 OVMax= 5.04D-05

 Cycle  14  Pass 1  IDiag  1:
 E= -649.184572531972     Delta-E=       -0.000000000460 Rises=F Damp=F
 DIIS: error= 2.34D-07 at cycle  14 NSaved=  14.
 NSaved=14 IEnMin=14 EnMin= -649.184572531972     IErMin=14 ErrMin= 2.34D-07
 ErrMax= 2.34D-07  0.00D+00 EMaxC= 1.00D-01 BMatC= 2.42D-12 BMatP= 4.68D-11
 IDIUse=1 WtCom= 1.00D+00 WtEn= 0.00D+00
 Coeff-Com: -0.863D-05 0.112D-04 0.800D-06 0.102D-04 0.121D-04 0.116D-03
 Coeff-Com: -0.268D-03 0.445D-03 0.442D-03 0.247D-02-0.131D-04-0.420D-01
 Coeff-Com:  0.229D-01 0.102D+01
 Coeff:     -0.863D-05 0.112D-04 0.800D-06 0.102D-04 0.121D-04 0.116D-03
 Coeff:     -0.268D-03 0.445D-03 0.442D-03 0.247D-02-0.131D-04-0.420D-01
 Coeff:      0.229D-01 0.102D+01
 Gap=     0.025 Goal=   None    Shift=    0.000
 RMSDP=1.12D-07 MaxDP=3.92D-06 DE=-4.60D-10 OVMax= 6.04D-06

 Cycle  15  Pass 1  IDiag  1:
 E= -649.184572531993     Delta-E=       -0.000000000021 Rises=F Damp=F
 DIIS: error= 5.47D-08 at cycle  15 NSaved=  15.
 NSaved=15 IEnMin=15 EnMin= -649.184572531993     IErMin=15 ErrMin= 5.47D-08
 ErrMax= 5.47D-08  0.00D+00 EMaxC= 1.00D-01 BMatC= 1.43D-13 BMatP= 2.42D-12
 IDIUse=1 WtCom= 1.00D+00 WtEn= 0.00D+00
 Coeff-Com: -0.537D-06 0.668D-06 0.478D-06-0.493D-05 0.644D-05 0.458D-04
 Coeff-Com:  0.210D-04-0.147D-03 0.529D-03 0.333D-02-0.144D-02-0.171D-01
 Coeff-Com: -0.571D-01 0.214D+00 0.858D+00
 Coeff:     -0.537D-06 0.668D-06 0.478D-06-0.493D-05 0.644D-05 0.458D-04
 Coeff:      0.210D-04-0.147D-03 0.529D-03 0.333D-02-0.144D-02-0.171D-01
 Coeff:     -0.571D-01 0.214D+00 0.858D+00
 Gap=     0.025 Goal=   None    Shift=    0.000
 RMSDP=3.99D-08 MaxDP=1.39D-06 DE=-2.14D-11 OVMax= 2.43D-06

 Cycle  16  Pass 1  IDiag  1:
 E= -649.184572531990     Delta-E=        0.000000000003 Rises=F Damp=F
 DIIS: error= 1.68D-08 at cycle  16 NSaved=  16.
 NSaved=16 IEnMin=15 EnMin= -649.184572531993     IErMin=16 ErrMin= 1.68D-08
 ErrMax= 1.68D-08  0.00D+00 EMaxC= 1.00D-01 BMatC= 1.48D-14 BMatP= 1.43D-13
 IDIUse=1 WtCom= 1.00D+00 WtEn= 0.00D+00
 Coeff-Com:  0.481D-06-0.622D-06 0.561D-07-0.197D-05-0.304D-06 0.212D-05
 Coeff-Com:  0.128D-04-0.980D-05 0.740D-04 0.591D-03-0.680D-03 0.231D-03
 Coeff-Com: -0.113D-01-0.135D-01 0.211D+00 0.813D+00
 Coeff:      0.481D-06-0.622D-06 0.561D-07-0.197D-05-0.304D-06 0.212D-05
 Coeff:      0.128D-04-0.980D-05 0.740D-04 0.591D-03-0.680D-03 0.231D-03
 Coeff:     -0.113D-01-0.135D-01 0.211D+00 0.813D+00
 Gap=     0.025 Goal=   None    Shift=    0.000
 RMSDP=6.50D-09 MaxDP=2.25D-07 DE= 2.50D-12 OVMax= 4.38D-07

 SCF Done:  E(RB3LYP) =  -649.184572532     A.U. after   16 cycles
            NFock= 16  Conv=0.65D-08     -V/T= 2.0029
 KE= 6.472846189619D+02 PE=-1.727634227195D+03 EE= 3.468492092936D+02
 Leave Link  502 at Wed Aug 23 10:07:50 2023, MaxMem=  1610612736 cpu:              22.8 elap:               1.6
 (Enter /home/sekinelabo/g16/l601.exe)
 Copying SCF densities to generalized density rwf, IOpCl= 0 IROHF=0.

 **********************************************************************

            Population analysis using the SCF Density.

 **********************************************************************

 Orbital symmetries:
       Occupied  (A) (A) (A) (A) (A) (A) (A) (A) (A) (A) (A) (A)
                 (A) (A) (A) (A) (A) (A) (A) (A) (A) (A)
       Virtual   (A) (A) (A) (A) (A) (A) (A) (A) (A) (A) (A) (A)
                 (A) (A) (A) (A) (A) (A) (A) (A) (A) (A) (A) (A)
                 (A) (A) (A) (A) (A) (A) (A) (A) (A) (A) (A) (A)
                 (A) (A) (A) (A) (A) (A) (A) (A) (A) (A) (A) (A)
                 (A) (A) (A) (A) (A) (A) (A) (A) (A) (A) (A) (A)
                 (A) (A) (A) (A) (A) (A) (A) (A) (A) (A) (A) (A)
                 (A) (A) (A) (A) (A) (A) (A) (A) (A) (A) (A) (A)
                 (A) (A) (A) (A) (A) (A) (A) (A) (A) (A) (A) (A)
                 (A) (A)
 The electronic state is 1-A.
 Alpha  occ. eigenvalues --  -38.46424 -38.46272 -38.44557 -38.43734  -2.22231
 Alpha  occ. eigenvalues --   -2.22042  -2.20321  -2.19426  -1.15897  -1.15892
 Alpha  occ. eigenvalues --   -1.15878  -1.15714  -1.15710  -1.15657  -1.14030
 Alpha  occ. eigenvalues --   -1.14013  -1.13920  -1.13105  -1.13104  -1.13064
 Alpha  occ. eigenvalues --   -0.15986  -0.10143
 Alpha virt. eigenvalues --   -0.07604  -0.06321  -0.03895  -0.02563  -0.01729
 Alpha virt. eigenvalues --   -0.01510  -0.00899  -0.00375  -0.00136   0.00030
 Alpha virt. eigenvalues --    0.00459   0.00554   0.00630   0.00946   0.01259
 Alpha virt. eigenvalues --    0.01400   0.01472   0.01882   0.02009   0.02148
 Alpha virt. eigenvalues --    0.02224   0.02403   0.02417   0.02811   0.02997
 Alpha virt. eigenvalues --    0.03150   0.03554   0.03676   0.04026   0.04863
 Alpha virt. eigenvalues --    0.05945   0.06552   0.07470   0.07656   0.08548
 Alpha virt. eigenvalues --    0.08880   0.08902   0.09040   0.09160   0.09666
 Alpha virt. eigenvalues --    0.10609   0.10966   0.12322   0.12945   0.13215
 Alpha virt. eigenvalues --    0.14510   0.25819   0.27581   0.29432   0.30030
 Alpha virt. eigenvalues --    0.30719   0.32124   0.32161   0.36288   0.36304
 Alpha virt. eigenvalues --    0.36513   0.36595   0.37361   0.38221   0.38838
 Alpha virt. eigenvalues --    0.41095   0.41799   0.41834   0.42186   0.42600
 Alpha virt. eigenvalues --    0.43135   0.44522   0.44657   0.44966   0.45505
 Alpha virt. eigenvalues --    0.46197   0.46533   0.46995   0.48148   0.51203
 Alpha virt. eigenvalues --    0.52852   0.61102   0.62075   1.99587   2.04335
 Alpha virt. eigenvalues --    2.11705   2.14326   4.40091   4.41988   4.42409
 Alpha virt. eigenvalues --    4.43087   4.44340   4.44529   4.45015   4.45539
 Alpha virt. eigenvalues --    4.46202   4.46887   4.51917   4.56098  96.18288
 Alpha virt. eigenvalues --   96.23810  96.32981  96.36408
          Condensed to atoms (all electrons):
               1          2          3          4
     1  Na  10.612147   0.061174  -0.441676  -0.136826
     2  Na   0.061174  10.737312   0.124143  -0.049662
     3  Na  -0.441676   0.124143  11.745385   0.367036
     4  Na  -0.136826  -0.049662   0.367036  11.056779
 Mulliken charges:
               1
     1  Na   0.905182
     2  Na   0.127033
     3  Na  -0.794888
     4  Na  -0.237327
 Sum of Mulliken charges =  -0.00000
 Mulliken charges with hydrogens summed into heavy atoms:
               1
     1  Na   0.905182
     2  Na   0.127033
     3  Na  -0.794888
     4  Na  -0.237327
 Electronic spatial extent (au):  <R**2>=           1989.7678
 Charge=             -0.0000 electrons
 Dipole moment (field-independent basis, Debye):
    X=              5.0372    Y=              0.1794    Z=             -0.0681  Tot=              5.0409
 Quadrupole moment (field-independent basis, Debye-Ang):
   XX=            -45.0803   YY=            -32.3091   ZZ=            -44.9810
   XY=             -4.4188   XZ=              0.0344   YZ=              0.4280
 Traceless Quadrupole moment (field-independent basis, Debye-Ang):
   XX=             -4.2902   YY=              8.4810   ZZ=             -4.1909
   XY=             -4.4188   XZ=              0.0344   YZ=              0.4280
 Octapole moment (field-independent basis, Debye-Ang**2):
  XXX=             54.5111  YYY=              5.7800  ZZZ=             -0.2990  XYY=             55.1898
  XXY=            -14.0537  XXZ=             -2.4399  XZZ=             19.6404  YZZ=             -0.1332
  YYZ=             -0.8547  XYZ=              1.3712
 Hexadecapole moment (field-independent basis, Debye-Ang**3):
 XXXX=          -3029.0313 YYYY=           -417.1680 ZZZZ=           -201.5689 XXXY=            -99.7565
 XXXZ=              5.7234 YYYX=            -22.6879 YYYZ=              3.5911 ZZZX=             -0.1787
 ZZZY=              2.4182 XXYY=           -523.5696 XXZZ=           -574.2772 YYZZ=           -109.5096
 XXYZ=              5.1044 YYXZ=             -1.9694 ZZXY=             -9.4633
 N-N= 8.431582640743D+01 E-N=-1.727634226341D+03  KE= 6.472846189619D+02
 No NMR shielding tensors so no spin-rotation constants.
 Leave Link  601 at Wed Aug 23 10:07:50 2023, MaxMem=  1610612736 cpu:               0.9 elap:               0.1
 (Enter /home/sekinelabo/g16/l701.exe)
 ... and contract with generalized density number  0.
 Compute integral first derivatives.
 Leave Link  701 at Wed Aug 23 10:07:50 2023, MaxMem=  1610612736 cpu:               1.2 elap:               0.1
 (Enter /home/sekinelabo/g16/l702.exe)
 L702 exits ... SP integral derivatives will be done elsewhere.
 Leave Link  702 at Wed Aug 23 10:07:50 2023, MaxMem=  1610612736 cpu:               0.3 elap:               0.0
 (Enter /home/sekinelabo/g16/l703.exe)
 Integral derivatives from FoFJK, PRISM(SPDF).
 Compute integral first derivatives, UseDBF=F ICtDFT=           0.
 Calling FoFJK, ICntrl=      2127 FMM=F ISym2X=0 I1Cent= 0 IOpClX= 0 NMat=1 NMatS=1 NMatT=0.
 FoFJK:  IHMeth= 1 ICntrl=    2127 DoSepK=F KAlg= 0 I1Cent=           0 FoldK=F
 IRaf=         0 NMat=       1 IRICut=       1 DoRegI=T DoRafI=F ISym2E= 0 IDoP0=0 IntGTp=1.
 FoFCou: FMM=F IPFlag=           0 FMFlag=      100000 FMFlg1=         800
         NFxFlg=           0 DoJE=F BraDBF=F KetDBF=F FulRan=T
         wScrn=  0.000000 ICntrl=      2127 IOpCl=  0 I1Cent=           0 NGrid=           0
         NMat0=    1 NMatS0=      1 NMatT0=    0 NMatD0=    1 NMtDS0=    0 NMtDT0=    0
 Symmetry not used in FoFCou.
 Leave Link  703 at Wed Aug 23 10:07:51 2023, MaxMem=  1610612736 cpu:               5.8 elap:               0.4
 (Enter /home/sekinelabo/g16/l716.exe)
 Dipole        = 1.98179801D+00 7.05754007D-02-2.68120612D-02
 ***** Axes restored to original set *****
 -------------------------------------------------------------------
 Center     Atomic                   Forces (Hartrees/Bohr)
 Number     Number              X              Y              Z
 -------------------------------------------------------------------
      1       11          -0.002621463    0.000024557   -0.000562470
      2       11           0.002142898    0.000047730   -0.001561670
      3       11           0.001079522   -0.000911793    0.007952365
      4       11          -0.000600957    0.000839505   -0.005828226
 -------------------------------------------------------------------
 Cartesian Forces:  Max     0.007952365 RMS     0.003088866
 Z-matrix is all fixed cartesians, so copy forces.
 Force constants in Cartesian coordinates: 
                1             2             3             4             5 
      1  0.315240D-01
      2  0.000000D+00  0.000000D+00
      3 -0.965424D-02  0.000000D+00  0.380234D-01
      4 -0.251739D-01  0.000000D+00  0.531313D-03  0.370493D-01
      5  0.000000D+00  0.000000D+00  0.000000D+00  0.000000D+00  0.000000D+00
      6  0.157277D-01  0.000000D+00 -0.991602D-02 -0.520863D-03  0.000000D+00
      7 -0.635012D-02  0.000000D+00  0.912293D-02 -0.118755D-01  0.000000D+00
      8  0.000000D+00  0.000000D+00  0.000000D+00  0.000000D+00  0.000000D+00
      9 -0.607351D-02  0.000000D+00 -0.281074D-01 -0.104502D-04  0.000000D+00
     10  0.000000D+00  0.000000D+00  0.000000D+00  0.000000D+00  0.000000D+00
     11  0.000000D+00  0.000000D+00  0.000000D+00  0.000000D+00  0.000000D+00
     12  0.000000D+00  0.000000D+00  0.000000D+00  0.000000D+00  0.000000D+00
                6             7             8             9            10 
      6  0.163991D-01
      7 -0.152069D-01  0.182256D-01
      8  0.000000D+00  0.000000D+00  0.000000D+00
      9 -0.648307D-02  0.608396D-02  0.000000D+00  0.345905D-01
     10  0.000000D+00  0.000000D+00  0.000000D+00  0.000000D+00  0.100000D+01
     11  0.000000D+00  0.000000D+00  0.000000D+00  0.000000D+00  0.000000D+00
     12  0.000000D+00  0.000000D+00  0.000000D+00  0.000000D+00  0.000000D+00
               11            12 
     11  0.100000D+01
     12  0.000000D+00  0.100000D+01
 Leave Link  716 at Wed Aug 23 10:07:51 2023, MaxMem=  1610612736 cpu:               0.3 elap:               0.0
 (Enter /home/sekinelabo/g16/l103.exe)

 GradGradGradGradGradGradGradGradGradGradGradGradGradGradGradGradGradGrad
 Berny optimization.
 Search for a local minimum.
 Step number   1 out of a maximum of    2
 All quantities printed in internal units (Hartrees-Bohrs-Radians)
 Second derivative matrix not updated -- first step.
 The second derivative matrix:
                          X1        Y1        Z1        X2        Y2
           X1           0.03152
           Y1          -0.00000  -0.00000
           Z1          -0.00965   0.00000   0.03802
           X2          -0.02517   0.00000   0.00053   0.03705
           Y2           0.00000  -0.00000  -0.00000  -0.00000   0.00000
           Z2           0.01573  -0.00000  -0.00992  -0.00052   0.00000
           X3          -0.00635   0.00000   0.00912  -0.01188  -0.00000
           Y3          -0.00000  -0.00000  -0.00000   0.00000   0.00000
           Z3          -0.00607  -0.00000  -0.02811  -0.00001  -0.00000
           X4           0.00000   0.00000   0.00000   0.00000   0.00000
           Y4           0.00000   0.00000   0.00000   0.00000   0.00000
           Z4           0.00000   0.00000   0.00000   0.00000   0.00000
                          Z2        X3        Y3        Z3        X4
           Z2           0.01640
           X3          -0.01521   0.01823
           Y3           0.00000  -0.00000   0.00000
           Z3          -0.00648   0.00608  -0.00000   0.03459
           X4           0.00000   0.00000   0.00000   0.00000   1.00000
           Y4           0.00000   0.00000   0.00000   0.00000   0.00000
           Z4           0.00000   0.00000   0.00000   0.00000  -0.00000
                          Y4        Z4
           Y4           1.00000
           Z4           0.00000   1.00000
 ITU=  0
     Eigenvalues ---    0.04610   0.06155   0.06816   0.10645   0.18589
     Eigenvalues ---    0.75000
 Angle between quadratic step and forces=  37.00 degrees.
 Linear search not attempted -- first point.
 B after Tr=    -0.000000    0.000000    0.000000
         Rot=    1.000000   -0.000000   -0.000000   -0.000000 Ang=   0.00 deg.
 Variable       Old X    -DE/DX   Delta X   Delta X   Delta X     New X
                                 (Linear)    (Quad)   (Total)
    X1       -0.00000  -0.00262   0.00000  -0.05643  -0.05643  -0.05643
    Y1       -0.00000   0.00002   0.00000   0.00221   0.00221   0.00221
    Z1        0.00000  -0.00056   0.00000  -0.04071  -0.04071  -0.04071
    X2       -5.85641   0.00214   0.00000   0.02007   0.02007  -5.83635
    Y2        0.00000   0.00005   0.00000   0.00122   0.00122   0.00122
    Z2        2.08379  -0.00156   0.00000  -0.05163  -0.05163   2.03216
    X3       -0.00000   0.00108   0.00000   0.03385   0.03385   0.03385
    Y3        0.00000  -0.00091   0.00000  -0.00664  -0.00664  -0.00664
    Z3        6.24418   0.00795   0.00000   0.10073   0.10073   6.34491
    X4        1.24080  -0.00060   0.00000   0.00251   0.00251   1.24331
    Y4       -1.26726   0.00084   0.00000   0.00320   0.00320  -1.26406
    Z4       15.46130  -0.00583   0.00000  -0.00840  -0.00840  15.45291
         Item               Value     Threshold  Converged?
 Maximum Force            0.007952     0.000450     NO 
 RMS     Force            0.003089     0.000300     NO 
 Maximum Displacement     0.100734     0.001800     NO 
 RMS     Displacement     0.040146     0.001200     NO 
 Predicted change in Energy=-5.941688D-04
 GradGradGradGradGradGradGradGradGradGradGradGradGradGradGradGradGradGrad

 Leave Link  103 at Wed Aug 23 10:07:51 2023, MaxMem=  1610612736 cpu:               0.1 elap:               0.0
 (Enter /home/sekinelabo/g16/l9999.exe)
 1\1\GINC-SEKINELABO-XA7R-R37\Force\RB3LYP\6-311+G(d)\Na4\SEKINELABO\23
 -Aug-2023\0\\#p B3LYP/6-311+g(d) force\\\0,1\Na,0.,0.,0.\Na,-3.0990807
 165,0.,1.1026917398\Na,0.,0.,3.3042757363\Na,0.6566025488,-0.670605039
 3,8.1817680858\\Version=ES64L-G16RevB.01\State=1-A\HF=-649.1845725\RMS
 D=6.495e-09\RMSF=3.089e-03\Dipole=-0.6111804,0.134901,-1.8818829\Quadr
 upole=3.8575329,-3.1103712,-0.7471616,0.1082534,-5.3040724,-0.1174125\
 PG=C01 [X(Na4)]\\@


 THE MOST SERIOUS THREAT TO THE SURVIVAL OF MANKIND IS NOT NOW
 IGNORANCE IN THE TRADITIONAL SENSE,
 BUT A MORALLY NEUTRAL, AN INSENSITIVE OR INHIBITED HUMAN INTELLIGENCE.

                     -- MARGO JEFFERSON IN NEWSWEEK, SEPTEMBER 2, 1974
 Job cpu time:       0 days  0 hours  0 minutes 37.5 seconds.
 Elapsed time:       0 days  0 hours  0 minutes  2.6 seconds.
 File lengths (MBytes):  RWF=     10 Int=      0 D2E=      0 Chk=      2 Scr=      1
 Normal termination of Gaussian 16 at Wed Aug 23 10:07:51 2023.
 Initial command:
 /home/sekinelabo/g16/l1.exe "/home/sekinelabo/g16temp/Gau-2966229.inp" -scrdir="/home/sekinelabo/g16temp/"
 Entering Link 1 = /home/sekinelabo/g16/l1.exe PID=   2967199.
  
 Copyright (c) 1988-2017, Gaussian, Inc.  All Rights Reserved.
  
 This is part of the Gaussian(R) 16 program.  It is based on
 the Gaussian(R) 09 system (copyright 2009, Gaussian, Inc.),
 the Gaussian(R) 03 system (copyright 2003, Gaussian, Inc.),
 the Gaussian(R) 98 system (copyright 1998, Gaussian, Inc.),
 the Gaussian(R) 94 system (copyright 1995, Gaussian, Inc.),
 the Gaussian 92(TM) system (copyright 1992, Gaussian, Inc.),
 the Gaussian 90(TM) system (copyright 1990, Gaussian, Inc.),
 the Gaussian 88(TM) system (copyright 1988, Gaussian, Inc.),
 the Gaussian 86(TM) system (copyright 1986, Carnegie Mellon
 University), and the Gaussian 82(TM) system (copyright 1983,
 Carnegie Mellon University). Gaussian is a federally registered
 trademark of Gaussian, Inc.
  
 This software contains proprietary and confidential information,
 including trade secrets, belonging to Gaussian, Inc.
  
 This software is provided under written license and may be
 used, copied, transmitted, or stored only in accord with that
 written license.
  
 The following legend is applicable only to US Government
 contracts under FAR:
  
                    RESTRICTED RIGHTS LEGEND
  
 Use, reproduction and disclosure by the US Government is
 subject to restrictions as set forth in subparagraphs (a)
 and (c) of the Commercial Computer Software - Restricted
 Rights clause in FAR 52.227-19.
  
 Gaussian, Inc.
 340 Quinnipiac St., Bldg. 40, Wallingford CT 06492
  
  
 ---------------------------------------------------------------
 Warning -- This program may not be used in any manner that
 competes with the business of Gaussian, Inc. or will provide
 assistance to any competitor of Gaussian, Inc.  The licensee
 of this program is prohibited from giving any competitor of
 Gaussian, Inc. access to this program.  By using this program,
 the user acknowledges that Gaussian, Inc. is engaged in the
 business of creating and licensing software in the field of
 computational chemistry and represents and warrants to the
 licensee that it is not a competitor of Gaussian, Inc. and that
 it will not use this program in any manner prohibited above.
 ---------------------------------------------------------------
  

 Cite this work as:
 Gaussian 16, Revision B.01,
 M. J. Frisch, G. W. Trucks, H. B. Schlegel, G. E. Scuseria, 
 M. A. Robb, J. R. Cheeseman, G. Scalmani, V. Barone, 
 G. A. Petersson, H. Nakatsuji, X. Li, M. Caricato, A. V. Marenich, 
 J. Bloino, B. G. Janesko, R. Gomperts, B. Mennucci, H. P. Hratchian, 
 J. V. Ortiz, A. F. Izmaylov, J. L. Sonnenberg, D. Williams-Young, 
 F. Ding, F. Lipparini, F. Egidi, J. Goings, B. Peng, A. Petrone, 
 T. Henderson, D. Ranasinghe, V. G. Zakrzewski, J. Gao, N. Rega, 
 G. Zheng, W. Liang, M. Hada, M. Ehara, K. Toyota, R. Fukuda, 
 J. Hasegawa, M. Ishida, T. Nakajima, Y. Honda, O. Kitao, H. Nakai, 
 T. Vreven, K. Throssell, J. A. Montgomery, Jr., J. E. Peralta, 
 F. Ogliaro, M. J. Bearpark, J. J. Heyd, E. N. Brothers, K. N. Kudin, 
 V. N. Staroverov, T. A. Keith, R. Kobayashi, J. Normand, 
 K. Raghavachari, A. P. Rendell, J. C. Burant, S. S. Iyengar, 
 J. Tomasi, M. Cossi, J. M. Millam, M. Klene, C. Adamo, R. Cammi, 
 J. W. Ochterski, R. L. Martin, K. Morokuma, O. Farkas, 
 J. B. Foresman, and D. J. Fox, Gaussian, Inc., Wallingford CT, 2016.
 
 ******************************************
 Gaussian 16:  ES64L-G16RevB.01 20-Dec-2017
                28-Aug-2023 
 ******************************************
 %NProcShared=16
 Will use up to   16 processors via shared memory.
 %mem=12GB
 %Chk=checkpoint.chk
 -------------------------
 #p B3LYP/6-311+g(d) force
 -------------------------
 1/10=7,30=1,38=1/1,3;
 2/12=2,17=6,18=5,40=1/2;
 3/5=4,6=6,7=11,11=2,25=1,30=1,71=1,74=-5/1,2,3;
 4//1;
 5/5=2,38=5/2;
 6/7=2,8=2,9=2,10=2,28=1/1;
 7/29=1/1,2,3,16;
 1/10=7,30=1/3;
 99//99;
 Leave Link    1 at Mon Aug 28 10:18:09 2023, MaxMem=  1610612736 cpu:               0.2 elap:               0.0
 (Enter /home/sekinelabo/g16/l101.exe)


 Symbolic Z-matrix:
 Charge =  0 Multiplicity = 1
 Na                    0.        0.        0. 
 Na                   -5.65191   0.        0.65355 
 Na                    0.        0.        3.24529 
 Na                   -1.93129  -0.15945   6.26699 
 
 ITRead=  0  0  0  0
 MicOpt= -1 -1 -1 -1
 NAtoms=      4 NQM=        4 NQMF=       0 NMMI=      0 NMMIF=      0
                NMic=       0 NMicF=      0.
                    Isotopes and Nuclear Properties:
 (Nuclear quadrupole moments (NQMom) in fm**2, nuclear magnetic moments (NMagM)
  in nuclear magnetons)

  Atom         1           2           3           4
 IAtWgt=          23          23          23          23
 AtmWgt=  22.9897697  22.9897697  22.9897697  22.9897697
 NucSpn=           3           3           3           3
 AtZEff=  -0.0000000  -0.0000000  -0.0000000  -0.0000000
 NQMom=   10.4000000  10.4000000  10.4000000  10.4000000
 NMagM=    2.2175200   2.2175200   2.2175200   2.2175200
 AtZNuc=  11.0000000  11.0000000  11.0000000  11.0000000
 Leave Link  101 at Mon Aug 28 10:18:09 2023, MaxMem=  1610612736 cpu:               1.8 elap:               0.1
 (Enter /home/sekinelabo/g16/l103.exe)

 GradGradGradGradGradGradGradGradGradGradGradGradGradGradGradGradGradGrad
 Berny optimization.
 Initialization pass.
 Trust Radius=3.00D-01 FncErr=1.00D-07 GrdErr=1.00D-07 EigMax=2.50D+02 EigMin=1.00D-04
 Number of steps in this run=      2 maximum allowed number of steps=      2.
 GradGradGradGradGradGradGradGradGradGradGradGradGradGradGradGradGradGrad

 Leave Link  103 at Mon Aug 28 10:18:09 2023, MaxMem=  1610612736 cpu:               0.2 elap:               0.0
 (Enter /home/sekinelabo/g16/l202.exe)
                          Input orientation:                          
 ---------------------------------------------------------------------
 Center     Atomic      Atomic             Coordinates (Angstroms)
 Number     Number       Type             X           Y           Z
 ---------------------------------------------------------------------
      1         11           0        0.000000    0.000000    0.000000
      2         11           0       -5.651911    0.000000    0.653548
      3         11           0        0.000000    0.000000    3.245292
      4         11           0       -1.931293   -0.159451    6.266988
 ---------------------------------------------------------------------
                    Distance matrix (angstroms):
                    1          2          3          4
     1  Na   0.000000
     2  Na   5.689571   0.000000
     3  Na   3.245292   6.217816   0.000000
     4  Na   6.559761   6.736404   3.589703   0.000000
 Stoichiometry    Na4
 Framework group  C1[X(Na4)]
 Deg. of freedom     6
 Full point group                 C1      NOp   1
 Largest Abelian subgroup         C1      NOp   1
 Largest concise Abelian subgroup C1      NOp   1
                         Standard orientation:                         
 ---------------------------------------------------------------------
 Center     Atomic      Atomic             Coordinates (Angstroms)
 Number     Number       Type             X           Y           Z
 ---------------------------------------------------------------------
      1         11           0       -1.102905    2.972750   -0.031818
      2         11           0       -3.626718   -2.126262    0.009024
      3         11           0        1.620396    1.209517    0.049192
      4         11           0        3.109227   -2.056005   -0.026398
 ---------------------------------------------------------------------
 Rotational constants (GHZ):           1.1537984           0.8243543           0.4809102
 Leave Link  202 at Mon Aug 28 10:18:09 2023, MaxMem=  1610612736 cpu:               0.0 elap:               0.0
 (Enter /home/sekinelabo/g16/l301.exe)
 Standard basis: 6-311+G(d) (5D, 7F)
 Ernie: Thresh=  0.10000D-02 Tol=  0.10000D-05 Strict=F.
 There are   124 symmetry adapted cartesian basis functions of A   symmetry.
 There are   120 symmetry adapted basis functions of A   symmetry.
   120 basis functions,   200 primitive gaussians,   124 cartesian basis functions
    22 alpha electrons       22 beta electrons
       nuclear repulsion energy        78.3856453918 Hartrees.
 IExCor=  402 DFT=T Ex+Corr=B3LYP ExCW=0 ScaHFX=  0.200000
 ScaDFX=  0.800000  0.720000  1.000000  0.810000 ScalE2=  1.000000  1.000000
 IRadAn=      5 IRanWt=     -1 IRanGd=            0 ICorTp=0 IEmpDi=  4
 NAtoms=    4 NActive=    4 NUniq=    4 SFac= 1.00D+00 NAtFMM=   60 NAOKFM=F Big=F
 Integral buffers will be    131072 words long.
 Raffenetti 2 integral format.
 Two-electron integral symmetry is turned on.
 Leave Link  301 at Mon Aug 28 10:18:09 2023, MaxMem=  1610612736 cpu:               0.4 elap:               0.0
 (Enter /home/sekinelabo/g16/l302.exe)
 NPDir=0 NMtPBC=     1 NCelOv=     1 NCel=       1 NClECP=     1 NCelD=      1
         NCelK=      1 NCelE2=     1 NClLst=     1 CellRange=     0.0.
 One-electron integrals computed using PRISM.
 One-electron integral symmetry used in STVInt
 NBasis=   120 RedAO= T EigKep=  5.20D-05  NBF=   120
 NBsUse=   120 1.00D-06 EigRej= -1.00D+00 NBFU=   120
 Precomputing XC quadrature grid using
 IXCGrd= 4 IRadAn=           5 IRanWt=          -1 IRanGd=           0 AccXCQ= 0.00D+00.
 Generated NRdTot=       0 NPtTot=           0 NUsed=           0 NTot=          32
 NSgBfM=   114   114   114   114   114 MxSgAt=     4 MxSgA2=     4.
 Leave Link  302 at Mon Aug 28 10:18:09 2023, MaxMem=  1610612736 cpu:               1.3 elap:               0.1
 (Enter /home/sekinelabo/g16/l303.exe)
 DipDrv:  MaxL=1.
 Leave Link  303 at Mon Aug 28 10:18:09 2023, MaxMem=  1610612736 cpu:               0.3 elap:               0.0
 (Enter /home/sekinelabo/g16/l401.exe)
 ExpMin= 7.60D-03 ExpMax= 3.62D+04 ExpMxC= 1.21D+03 IAcc=3 IRadAn=         5 AccDes= 0.00D+00
 Harris functional with IExCor=  402 and IRadAn=       5 diagonalized for initial guess.
 HarFok:  IExCor=  402 AccDes= 0.00D+00 IRadAn=         5 IDoV= 1 UseB2=F ITyADJ=14
 ICtDFT=  3500011 ScaDFX=  1.000000  1.000000  1.000000  1.000000
 FoFCou: FMM=F IPFlag=           0 FMFlag=      100000 FMFlg1=           0
         NFxFlg=           0 DoJE=T BraDBF=F KetDBF=T FulRan=T
         wScrn=  0.000000 ICntrl=       500 IOpCl=  0 I1Cent=   200000004 NGrid=           0
         NMat0=    1 NMatS0=      1 NMatT0=    0 NMatD0=    1 NMtDS0=    0 NMtDT0=    0
 Petite list used in FoFCou.
 Harris En= -649.050635663897    
 JPrj=0 DoOrth=F DoCkMO=F.
 Leave Link  401 at Mon Aug 28 10:18:09 2023, MaxMem=  1610612736 cpu:               2.0 elap:               0.1
 (Enter /home/sekinelabo/g16/l502.exe)
 Keep R1 ints in memory in canonical form, NReq=41581762.
 FoFCou: FMM=F IPFlag=           0 FMFlag=           0 FMFlg1=           0
         NFxFlg=           0 DoJE=F BraDBF=F KetDBF=F FulRan=T
         wScrn=  0.000000 ICntrl=       600 IOpCl=  0 I1Cent=           0 NGrid=           0
         NMat0=    1 NMatS0=   7260 NMatT0=    0 NMatD0=    1 NMtDS0=    0 NMtDT0=    0
 Symmetry not used in FoFCou.
 Two-electron integral symmetry not used.
 Closed shell SCF:
 Using DIIS extrapolation, IDIIS=  1040.
 NGot=  1610612736 LenX=  1584221380 LenY=  1584205563
 Requested convergence on RMS density matrix=1.00D-08 within 128 cycles.
 Requested convergence on MAX density matrix=1.00D-06.
 Requested convergence on             energy=1.00D-06.
 No special actions if energy rises.

 Cycle   1  Pass 1  IDiag  1:
 E= -649.100034769140    
 DIIS: error= 1.33D-02 at cycle   1 NSaved=   1.
 NSaved= 1 IEnMin= 1 EnMin= -649.100034769140     IErMin= 1 ErrMin= 1.33D-02
 ErrMax= 1.33D-02  0.00D+00 EMaxC= 1.00D-01 BMatC= 2.91D-02 BMatP= 2.91D-02
 IDIUse=3 WtCom= 8.67D-01 WtEn= 1.33D-01
 Coeff-Com:  0.100D+01
 Coeff-En:   0.100D+01
 Coeff:      0.100D+01
 Gap=    -0.092 Goal=   None    Shift=    0.000
 GapD=   -0.092 DampG=0.250 DampE=0.500 DampFc=0.2500 IDamp=-1.
 Damping current iteration by 2.50D-01
 RMSDP=1.61D-02 MaxDP=1.14D+00              OVMax= 9.42D-01

 Cycle   2  Pass 1  IDiag  1:
 E= -649.133765333629     Delta-E=       -0.033730564490 Rises=F Damp=T
 DIIS: error= 8.78D-03 at cycle   2 NSaved=   2.
 NSaved= 2 IEnMin= 2 EnMin= -649.133765333629     IErMin= 2 ErrMin= 8.78D-03
 ErrMax= 8.78D-03  0.00D+00 EMaxC= 1.00D-01 BMatC= 1.02D-02 BMatP= 2.91D-02
 IDIUse=3 WtCom= 9.12D-01 WtEn= 8.78D-02
 Coeff-Com: -0.807D+00 0.181D+01
 Coeff-En:   0.117D-02 0.999D+00
 Coeff:     -0.736D+00 0.174D+01
 Gap=     0.083 Goal=   None    Shift=    0.000
 RMSDP=5.28D-03 MaxDP=3.11D-01 DE=-3.37D-02 OVMax= 8.16D-01

 Cycle   3  Pass 1  IDiag  1:
 E= -649.070016627858     Delta-E=        0.063748705772 Rises=F Damp=F
 DIIS: error= 9.30D-03 at cycle   3 NSaved=   3.
 NSaved= 3 IEnMin= 2 EnMin= -649.133765333629     IErMin= 2 ErrMin= 8.78D-03
 ErrMax= 9.30D-03  0.00D+00 EMaxC= 1.00D-01 BMatC= 9.26D-03 BMatP= 1.02D-02
 IDIUse=3 WtCom= 9.07D-01 WtEn= 9.30D-02
 Coeff-Com: -0.620D+00 0.119D+01 0.433D+00
 Coeff-En:   0.000D+00 0.991D+00 0.898D-02
 Coeff:     -0.562D+00 0.117D+01 0.394D+00
 Gap=     0.002 Goal=   None    Shift=    0.000
 RMSDP=9.09D-03 MaxDP=5.67D-01 DE= 6.37D-02 OVMax= 9.09D-01

 Cycle   4  Pass 1  IDiag  1:
 E= -649.093074690488     Delta-E=       -0.023058062630 Rises=F Damp=F
 DIIS: error= 8.39D-03 at cycle   4 NSaved=   4.
 NSaved= 4 IEnMin= 2 EnMin= -649.133765333629     IErMin= 4 ErrMin= 8.39D-03
 ErrMax= 8.39D-03  0.00D+00 EMaxC= 1.00D-01 BMatC= 5.76D-03 BMatP= 9.26D-03
 IDIUse=3 WtCom= 9.16D-01 WtEn= 8.39D-02
 EnCoef did    32 forward-backward iterations
 Coeff-Com: -0.351D+00 0.721D+00 0.381D+00 0.249D+00
 Coeff-En:   0.425D+00 0.000D+00 0.830D-01 0.492D+00
 Coeff:     -0.286D+00 0.660D+00 0.356D+00 0.270D+00
 Gap=    -0.003 Goal=   None    Shift=    0.000
 RMSDP=7.22D-03 MaxDP=5.04D-01 DE=-2.31D-02 OVMax= 8.17D-01

 Cycle   5  Pass 1  IDiag  1:
 E= -649.137272587126     Delta-E=       -0.044197896638 Rises=F Damp=F
 DIIS: error= 5.28D-03 at cycle   5 NSaved=   5.
 NSaved= 5 IEnMin= 5 EnMin= -649.137272587126     IErMin= 5 ErrMin= 5.28D-03
 ErrMax= 5.28D-03  0.00D+00 EMaxC= 1.00D-01 BMatC= 2.08D-03 BMatP= 5.76D-03
 IDIUse=3 WtCom= 9.47D-01 WtEn= 5.28D-02
 Coeff-Com: -0.213D+00 0.357D+00 0.321D-01 0.227D+00 0.597D+00
 Coeff-En:   0.000D+00 0.000D+00 0.000D+00 0.380D+00 0.620D+00
 Coeff:     -0.202D+00 0.338D+00 0.304D-01 0.235D+00 0.599D+00
 Gap=     0.004 Goal=   None    Shift=    0.000
 RMSDP=5.28D-03 MaxDP=3.35D-01 DE=-4.42D-02 OVMax= 5.95D-01

 Cycle   6  Pass 1  IDiag  1:
 E= -649.150874872121     Delta-E=       -0.013602284995 Rises=F Damp=F
 DIIS: error= 4.95D-03 at cycle   6 NSaved=   6.
 NSaved= 6 IEnMin= 6 EnMin= -649.150874872121     IErMin= 6 ErrMin= 4.95D-03
 ErrMax= 4.95D-03  0.00D+00 EMaxC= 1.00D-01 BMatC= 2.20D-03 BMatP= 2.08D-03
 IDIUse=3 WtCom= 9.51D-01 WtEn= 4.95D-02
 Coeff-Com: -0.109D+00 0.156D+00-0.712D-01-0.170D+00 0.577D+00 0.617D+00
 Coeff-En:   0.000D+00 0.000D+00 0.000D+00 0.000D+00 0.425D+00 0.575D+00
 Coeff:     -0.104D+00 0.148D+00-0.677D-01-0.162D+00 0.570D+00 0.615D+00
 Gap=     0.018 Goal=   None    Shift=    0.000
 RMSDP=1.08D-03 MaxDP=4.77D-02 DE=-1.36D-02 OVMax= 8.60D-02

 Cycle   7  Pass 1  IDiag  1:
 E= -649.141074875508     Delta-E=        0.009799996613 Rises=F Damp=F
 DIIS: error= 6.49D-03 at cycle   7 NSaved=   7.
 NSaved= 7 IEnMin= 6 EnMin= -649.150874872121     IErMin= 6 ErrMin= 4.95D-03
 ErrMax= 6.49D-03  0.00D+00 EMaxC= 1.00D-01 BMatC= 3.07D-03 BMatP= 2.08D-03
 IDIUse=3 WtCom= 9.51D-01 WtEn= 4.95D-02
 EnCoef did    30 forward-backward iterations
 Coeff-Com: -0.937D-01 0.133D+00-0.800D-01-0.314D+00 0.572D+00 0.449D+00
 Coeff-Com:  0.334D+00
 Coeff-En:   0.000D+00 0.000D+00 0.000D+00 0.000D+00 0.426D+00 0.563D+00
 Coeff-En:   0.118D-01
 Coeff:     -0.891D-01 0.126D+00-0.760D-01-0.299D+00 0.565D+00 0.455D+00
 Coeff:      0.318D+00
 Gap=     0.020 Goal=   None    Shift=    0.000
 RMSDP=5.38D-04 MaxDP=2.51D-02 DE= 9.80D-03 OVMax= 5.01D-02

 Cycle   8  Pass 1  IDiag  1:
 E= -649.137201157391     Delta-E=        0.003873718117 Rises=F Damp=F
 DIIS: error= 6.02D-03 at cycle   8 NSaved=   8.
 NSaved= 8 IEnMin= 6 EnMin= -649.150874872121     IErMin= 6 ErrMin= 4.95D-03
 ErrMax= 6.02D-03  0.00D+00 EMaxC= 1.00D-01 BMatC= 3.32D-03 BMatP= 2.08D-03
 IDIUse=3 WtCom= 9.51D-01 WtEn= 4.95D-02
 Rare condition: small coef for last iteration:  0.444D-15
 Coeff-Com: -0.102D+00 0.143D+00-0.763D-01-0.246D+00 0.547D+00 0.647D+00
 Coeff-Com:  0.582D+00-0.493D+00
 Coeff-En:   0.000D+00 0.000D+00 0.000D+00 0.000D+00 0.500D+00 0.000D+00
 Coeff-En:   0.000D+00 0.500D+00
 Coeff:     -0.102D+00 0.143D+00-0.763D-01-0.246D+00 0.547D+00 0.647D+00
 Coeff:      0.582D+00-0.493D+00
 Gap=     0.020 Goal=   None    Shift=    0.000
 RMSDP=1.74D-04 MaxDP=8.03D-03 DE= 3.87D-03 OVMax= 1.65D-02

 Cycle   9  Pass 1  IDiag  1:
 E= -649.139606305961     Delta-E=       -0.002405148570 Rises=F Damp=F
 DIIS: error= 5.69D-03 at cycle   9 NSaved=   9.
 NSaved= 9 IEnMin= 6 EnMin= -649.150874872121     IErMin= 6 ErrMin= 4.95D-03
 ErrMax= 5.69D-03  0.00D+00 EMaxC= 1.00D-01 BMatC= 3.12D-03 BMatP= 2.08D-03
 IDIUse=3 WtCom= 9.51D-01 WtEn= 4.95D-02
 EnCoef did   100 forward-backward iterations
 Coeff-Com: -0.983D-01 0.136D+00-0.646D-01-0.110D+00 0.494D+00 0.666D+00
 Coeff-Com:  0.112D+01-0.326D+01 0.211D+01
 Coeff-En:   0.000D+00 0.000D+00 0.000D+00 0.000D+00 0.426D+00 0.559D+00
 Coeff-En:   0.106D-01 0.000D+00 0.440D-02
 Coeff:     -0.935D-01 0.130D+00-0.614D-01-0.105D+00 0.491D+00 0.661D+00
 Coeff:      0.107D+01-0.309D+01 0.201D+01
 Gap=     0.019 Goal=   None    Shift=    0.000
 RMSDP=5.23D-04 MaxDP=3.45D-02 DE=-2.41D-03 OVMax= 5.01D-02

 Cycle  10  Pass 1  IDiag  1:
 E= -649.148335122331     Delta-E=       -0.008728816370 Rises=F Damp=F
 DIIS: error= 5.14D-03 at cycle  10 NSaved=  10.
 NSaved=10 IEnMin= 6 EnMin= -649.150874872121     IErMin= 6 ErrMin= 4.95D-03
 ErrMax= 5.14D-03  0.00D+00 EMaxC= 1.00D-01 BMatC= 2.39D-03 BMatP= 2.08D-03
 IDIUse=3 WtCom= 9.51D-01 WtEn= 4.95D-02
 EnCoef did    98 forward-backward iterations
 Coeff-Com: -0.744D-01 0.104D+00-0.546D-01-0.424D-01 0.453D+00 0.429D+00
 Coeff-Com:  0.801D+00-0.278D+01 0.110D+01 0.107D+01
 Coeff-En:   0.000D+00 0.000D+00 0.000D+00 0.000D+00 0.437D+00 0.145D+00
 Coeff-En:   0.000D+00 0.000D+00 0.000D+00 0.418D+00
 Coeff:     -0.707D-01 0.992D-01-0.519D-01-0.403D-01 0.452D+00 0.415D+00
 Coeff:      0.761D+00-0.265D+01 0.104D+01 0.104D+01
 Gap=     0.019 Goal=   None    Shift=    0.000
 RMSDP=7.41D-05 MaxDP=4.96D-03 DE=-8.73D-03 OVMax= 6.16D-03

 Cycle  11  Pass 1  IDiag  1:
 E= -649.149398711883     Delta-E=       -0.001063589552 Rises=F Damp=F
 DIIS: error= 5.07D-03 at cycle  11 NSaved=  11.
 NSaved=11 IEnMin= 6 EnMin= -649.150874872121     IErMin= 6 ErrMin= 4.95D-03
 ErrMax= 5.07D-03  0.00D+00 EMaxC= 1.00D-01 BMatC= 2.29D-03 BMatP= 2.08D-03
 IDIUse=3 WtCom= 9.51D-01 WtEn= 4.95D-02
 Coeff-Com: -0.643D-01 0.914D-01-0.482D-01 0.555D-02 0.419D+00 0.291D+00
 Coeff-Com:  0.597D+00-0.260D+01 0.989D+00-0.200D+01 0.332D+01
 Coeff-En:   0.000D+00 0.000D+00 0.000D+00 0.000D+00 0.436D+00 0.000D+00
 Coeff-En:   0.000D+00 0.000D+00 0.000D+00 0.000D+00 0.564D+00
 Coeff:     -0.612D-01 0.869D-01-0.458D-01 0.528D-02 0.420D+00 0.276D+00
 Coeff:      0.568D+00-0.247D+01 0.940D+00-0.190D+01 0.318D+01
 Gap=     0.019 Goal=   None    Shift=    0.000
 RMSDP=2.64D-04 MaxDP=1.77D-02 DE=-1.06D-03 OVMax= 2.71D-02

 Cycle  12  Pass 1  IDiag  1:
 E= -649.153499244667     Delta-E=       -0.004100532784 Rises=F Damp=F
 DIIS: error= 4.64D-03 at cycle  12 NSaved=  12.
 NSaved=12 IEnMin=12 EnMin= -649.153499244667     IErMin=12 ErrMin= 4.64D-03
 ErrMax= 4.64D-03  0.00D+00 EMaxC= 1.00D-01 BMatC= 1.90D-03 BMatP= 2.08D-03
 IDIUse=3 WtCom= 9.54D-01 WtEn= 4.64D-02
 Coeff-Com: -0.398D-01 0.554D-01-0.321D-01 0.641D-01 0.295D+00 0.558D-01
 Coeff-Com:  0.488D+00-0.122D+01 0.195D+01-0.454D+01-0.282D+01 0.673D+01
 Coeff-En:   0.000D+00 0.000D+00 0.000D+00 0.000D+00 0.406D+00 0.000D+00
 Coeff-En:   0.000D+00 0.000D+00 0.000D+00 0.000D+00 0.000D+00 0.594D+00
 Coeff:     -0.380D-01 0.528D-01-0.307D-01 0.611D-01 0.300D+00 0.532D-01
 Coeff:      0.466D+00-0.116D+01 0.186D+01-0.433D+01-0.269D+01 0.645D+01
 Gap=     0.018 Goal=   None    Shift=    0.000
 RMSDP=1.13D-03 MaxDP=7.56D-02 DE=-4.10D-03 OVMax= 1.15D-01

 Cycle  13  Pass 1  IDiag  1:
 E= -649.166472171267     Delta-E=       -0.012972926600 Rises=F Damp=F
 DIIS: error= 2.54D-03 at cycle  13 NSaved=  13.
 NSaved=13 IEnMin=13 EnMin= -649.166472171267     IErMin=13 ErrMin= 2.54D-03
 ErrMax= 2.54D-03  0.00D+00 EMaxC= 1.00D-01 BMatC= 5.47D-04 BMatP= 1.90D-03
 IDIUse=3 WtCom= 9.75D-01 WtEn= 2.54D-02
 Coeff-Com: -0.114D-01 0.146D-01-0.104D-01 0.287D-01 0.136D+00-0.367D-01
 Coeff-Com:  0.970D-01 0.106D+01 0.415D+00-0.665D+00-0.585D+01 0.453D+01
 Coeff-Com:  0.129D+01
 Coeff-En:   0.000D+00 0.000D+00 0.000D+00 0.000D+00 0.230D+00 0.000D+00
 Coeff-En:   0.000D+00 0.000D+00 0.000D+00 0.000D+00 0.000D+00 0.000D+00
 Coeff-En:   0.770D+00
 Coeff:     -0.111D-01 0.142D-01-0.101D-01 0.280D-01 0.138D+00-0.358D-01
 Coeff:      0.945D-01 0.104D+01 0.405D+00-0.648D+00-0.571D+01 0.442D+01
 Coeff:      0.128D+01
 Gap=     0.018 Goal=   None    Shift=    0.000
 RMSDP=9.94D-04 MaxDP=6.45D-02 DE=-1.30D-02 OVMax= 1.07D-01

 Cycle  14  Pass 1  IDiag  1:
 E= -649.171324401799     Delta-E=       -0.004852230532 Rises=F Damp=F
 DIIS: error= 3.60D-04 at cycle  14 NSaved=  14.
 NSaved=14 IEnMin=14 EnMin= -649.171324401799     IErMin=14 ErrMin= 3.60D-04
 ErrMax= 3.60D-04  0.00D+00 EMaxC= 1.00D-01 BMatC= 1.14D-05 BMatP= 5.47D-04
 IDIUse=3 WtCom= 9.96D-01 WtEn= 3.60D-03
 Coeff-Com: -0.971D-03 0.113D-02-0.394D-02 0.107D-01 0.387D-01-0.147D-01
 Coeff-Com:  0.612D-01 0.969D-01 0.119D+00 0.730D+00-0.176D+01 0.547D+00
 Coeff-Com:  0.343D+00 0.836D+00
 Coeff-En:   0.000D+00 0.000D+00 0.000D+00 0.000D+00 0.000D+00 0.000D+00
 Coeff-En:   0.000D+00 0.000D+00 0.000D+00 0.000D+00 0.000D+00 0.000D+00
 Coeff-En:   0.000D+00 0.100D+01
 Coeff:     -0.967D-03 0.113D-02-0.393D-02 0.107D-01 0.386D-01-0.146D-01
 Coeff:      0.610D-01 0.965D-01 0.119D+00 0.727D+00-0.176D+01 0.545D+00
 Coeff:      0.342D+00 0.837D+00
 Gap=     0.019 Goal=   None    Shift=    0.000
 RMSDP=9.79D-05 MaxDP=5.63D-03 DE=-4.85D-03 OVMax= 7.83D-03

 Cycle  15  Pass 1  IDiag  1:
 E= -649.171391867683     Delta-E=       -0.000067465884 Rises=F Damp=F
 DIIS: error= 1.86D-04 at cycle  15 NSaved=  15.
 NSaved=15 IEnMin=15 EnMin= -649.171391867683     IErMin=15 ErrMin= 1.86D-04
 ErrMax= 1.86D-04  0.00D+00 EMaxC= 1.00D-01 BMatC= 2.82D-06 BMatP= 1.14D-05
 IDIUse=3 WtCom= 9.98D-01 WtEn= 1.86D-03
 Coeff-Com:  0.122D-02-0.154D-02-0.717D-03 0.275D-04 0.785D-02-0.845D-02
 Coeff-Com: -0.109D-01 0.518D-01-0.245D-01 0.110D+00-0.501D-01-0.130D+00
 Coeff-Com:  0.157D-01 0.186D+00 0.853D+00
 Coeff-En:   0.000D+00 0.000D+00 0.000D+00 0.000D+00 0.000D+00 0.000D+00
 Coeff-En:   0.000D+00 0.000D+00 0.000D+00 0.000D+00 0.000D+00 0.000D+00
 Coeff-En:   0.000D+00 0.000D+00 0.100D+01
 Coeff:      0.121D-02-0.154D-02-0.716D-03 0.274D-04 0.784D-02-0.843D-02
 Coeff:     -0.109D-01 0.517D-01-0.244D-01 0.110D+00-0.500D-01-0.130D+00
 Coeff:      0.156D-01 0.186D+00 0.853D+00
 Gap=     0.019 Goal=   None    Shift=    0.000
 RMSDP=6.56D-05 MaxDP=4.13D-03 DE=-6.75D-05 OVMax= 6.60D-03

 Cycle  16  Pass 1  IDiag  1:
 E= -649.171415531459     Delta-E=       -0.000023663776 Rises=F Damp=F
 DIIS: error= 4.68D-05 at cycle  16 NSaved=  16.
 NSaved=16 IEnMin=16 EnMin= -649.171415531459     IErMin=16 ErrMin= 4.68D-05
 ErrMax= 4.68D-05  0.00D+00 EMaxC= 1.00D-01 BMatC= 1.85D-07 BMatP= 2.82D-06
 IDIUse=1 WtCom= 1.00D+00 WtEn= 0.00D+00
 Coeff-Com:  0.115D-03-0.148D-03 0.313D-03 0.756D-03 0.339D-03 0.487D-03
 Coeff-Com: -0.338D-02 0.430D-02-0.163D-02-0.553D-01 0.582D-01-0.864D-03
 Coeff-Com: -0.179D-01-0.247D-01-0.176D-02 0.104D+01
 Coeff:      0.115D-03-0.148D-03 0.313D-03 0.756D-03 0.339D-03 0.487D-03
 Coeff:     -0.338D-02 0.430D-02-0.163D-02-0.553D-01 0.582D-01-0.864D-03
 Coeff:     -0.179D-01-0.247D-01-0.176D-02 0.104D+01
 Gap=     0.019 Goal=   None    Shift=    0.000
 RMSDP=1.91D-05 MaxDP=1.14D-03 DE=-2.37D-05 OVMax= 1.69D-03

 Cycle  17  Pass 1  IDiag  1:
 E= -649.171417064155     Delta-E=       -0.000001532696 Rises=F Damp=F
 DIIS: error= 9.66D-06 at cycle  17 NSaved=  17.
 NSaved=17 IEnMin=17 EnMin= -649.171417064155     IErMin=17 ErrMin= 9.66D-06
 ErrMax= 9.66D-06  0.00D+00 EMaxC= 1.00D-01 BMatC= 7.77D-09 BMatP= 1.85D-07
 IDIUse=1 WtCom= 1.00D+00 WtEn= 0.00D+00
 Coeff-Com:  0.310D-04-0.547D-04 0.270D-04 0.408D-03 0.214D-03-0.833D-03
 Coeff-Com: -0.807D-03 0.142D-02-0.974D-03 0.140D-01-0.206D-01 0.474D-02
 Coeff-Com:  0.609D-02 0.675D-02-0.487D-01-0.126D+00 0.116D+01
 Coeff:      0.310D-04-0.547D-04 0.270D-04 0.408D-03 0.214D-03-0.833D-03
 Coeff:     -0.807D-03 0.142D-02-0.974D-03 0.140D-01-0.206D-01 0.474D-02
 Coeff:      0.609D-02 0.675D-02-0.487D-01-0.126D+00 0.116D+01
 Gap=     0.019 Goal=   None    Shift=    0.000
 RMSDP=4.85D-06 MaxDP=2.65D-04 DE=-1.53D-06 OVMax= 4.17D-04

 Cycle  18  Pass 1  IDiag  1:
 E= -649.171417132610     Delta-E=       -0.000000068455 Rises=F Damp=F
 DIIS: error= 1.03D-06 at cycle  18 NSaved=  18.
 NSaved=18 IEnMin=18 EnMin= -649.171417132610     IErMin=18 ErrMin= 1.03D-06
 ErrMax= 1.03D-06  0.00D+00 EMaxC= 1.00D-01 BMatC= 8.35D-11 BMatP= 7.77D-09
 IDIUse=1 WtCom= 1.00D+00 WtEn= 0.00D+00
 Coeff-Com:  0.182D-04-0.255D-04-0.973D-06 0.478D-04-0.266D-04-0.964D-04
 Coeff-Com:  0.107D-03-0.953D-03 0.350D-03 0.240D-02-0.116D-02-0.843D-03
 Coeff-Com:  0.535D-03 0.121D-02-0.790D-02-0.544D-01 0.202D+00 0.858D+00
 Coeff:      0.182D-04-0.255D-04-0.973D-06 0.478D-04-0.266D-04-0.964D-04
 Coeff:      0.107D-03-0.953D-03 0.350D-03 0.240D-02-0.116D-02-0.843D-03
 Coeff:      0.535D-03 0.121D-02-0.790D-02-0.544D-01 0.202D+00 0.858D+00
 Gap=     0.019 Goal=   None    Shift=    0.000
 RMSDP=6.06D-07 MaxDP=3.39D-05 DE=-6.85D-08 OVMax= 4.20D-05

 Cycle  19  Pass 1  IDiag  1:
 E= -649.171417133275     Delta-E=       -0.000000000666 Rises=F Damp=F
 DIIS: error= 1.96D-07 at cycle  19 NSaved=  19.
 NSaved=19 IEnMin=19 EnMin= -649.171417133275     IErMin=19 ErrMin= 1.96D-07
 ErrMax= 1.96D-07  0.00D+00 EMaxC= 1.00D-01 BMatC= 1.45D-12 BMatP= 8.35D-11
 IDIUse=1 WtCom= 1.00D+00 WtEn= 0.00D+00
 Coeff-Com:  0.392D-05-0.504D-05-0.220D-05 0.184D-04 0.632D-05 0.121D-04
 Coeff-Com:  0.625D-04-0.367D-03 0.320D-03-0.681D-03 0.807D-03-0.200D-03
 Coeff-Com:  0.187D-04 0.301D-03 0.282D-02-0.544D-02-0.325D-01 0.151D+00
 Coeff-Com:  0.884D+00
 Coeff:      0.392D-05-0.504D-05-0.220D-05 0.184D-04 0.632D-05 0.121D-04
 Coeff:      0.625D-04-0.367D-03 0.320D-03-0.681D-03 0.807D-03-0.200D-03
 Coeff:      0.187D-04 0.301D-03 0.282D-02-0.544D-02-0.325D-01 0.151D+00
 Coeff:      0.884D+00
 Gap=     0.019 Goal=   None    Shift=    0.000
 RMSDP=7.03D-08 MaxDP=3.21D-06 DE=-6.66D-10 OVMax= 4.05D-06

 Cycle  20  Pass 1  IDiag  1:
 E= -649.171417133283     Delta-E=       -0.000000000008 Rises=F Damp=F
 DIIS: error= 1.88D-08 at cycle  20 NSaved=  20.
 NSaved=20 IEnMin=20 EnMin= -649.171417133283     IErMin=20 ErrMin= 1.88D-08
 ErrMax= 1.88D-08  0.00D+00 EMaxC= 1.00D-01 BMatC= 3.15D-14 BMatP= 1.45D-12
 IDIUse=1 WtCom= 1.00D+00 WtEn= 0.00D+00
 Coeff-Com: -0.422D-07 0.502D-07-0.737D-07-0.137D-05-0.147D-05-0.669D-05
 Coeff-Com: -0.202D-04 0.462D-04-0.695D-04 0.237D-04 0.930D-04-0.569D-04
 Coeff-Com: -0.147D-04-0.239D-04 0.243D-03-0.141D-03 0.219D-03-0.333D-01
 Coeff-Com:  0.177D-01 0.102D+01
 Coeff:     -0.422D-07 0.502D-07-0.737D-07-0.137D-05-0.147D-05-0.669D-05
 Coeff:     -0.202D-04 0.462D-04-0.695D-04 0.237D-04 0.930D-04-0.569D-04
 Coeff:     -0.147D-04-0.239D-04 0.243D-03-0.141D-03 0.219D-03-0.333D-01
 Coeff:      0.177D-01 0.102D+01
 Gap=     0.019 Goal=   None    Shift=    0.000
 RMSDP=1.64D-08 MaxDP=4.62D-07 DE=-7.73D-12 OVMax= 4.77D-07

 Cycle  21  Pass 1  IDiag  1:
 E= -649.171417133285     Delta-E=       -0.000000000002 Rises=F Damp=F
 DIIS: error= 1.11D-08 at cycle  21 NSaved=  20.
 NSaved=20 IEnMin=20 EnMin= -649.171417133285     IErMin=20 ErrMin= 1.11D-08
 ErrMax= 1.11D-08  0.00D+00 EMaxC= 1.00D-01 BMatC= 9.75D-15 BMatP= 3.15D-14
 IDIUse=1 WtCom= 1.00D+00 WtEn= 0.00D+00
 Large coefficients: NSaved= 20 BigCof=    0.00 CofMax=   10.00 Det=-1.67D-15
 Inversion failed.  Reducing to 19 matrices.
 Large coefficients: NSaved= 19 BigCof=    0.00 CofMax=   10.00 Det=-1.87D-15
 Inversion failed.  Reducing to 18 matrices.
 Large coefficients: NSaved= 18 BigCof=    0.00 CofMax=   10.00 Det=-1.97D-15
 Inversion failed.  Reducing to 17 matrices.
 Large coefficients: NSaved= 17 BigCof=    0.00 CofMax=   10.00 Det=-1.97D-15
 Inversion failed.  Reducing to 16 matrices.
 Large coefficients: NSaved= 16 BigCof=    0.00 CofMax=   10.00 Det=-2.24D-15
 Inversion failed.  Reducing to 15 matrices.
 Coeff-Com: -0.456D-06-0.168D-05-0.453D-05-0.193D-05 0.188D-04-0.780D-05
 Coeff-Com: -0.527D-05-0.107D-04 0.304D-04 0.218D-03 0.504D-03-0.408D-02
 Coeff-Com: -0.114D-01 0.952D-01 0.920D+00
 Coeff:     -0.456D-06-0.168D-05-0.453D-05-0.193D-05 0.188D-04-0.780D-05
 Coeff:     -0.527D-05-0.107D-04 0.304D-04 0.218D-03 0.504D-03-0.408D-02
 Coeff:     -0.114D-01 0.952D-01 0.920D+00
 Gap=     0.019 Goal=   None    Shift=    0.000
 RMSDP=6.19D-09 MaxDP=3.67D-07 DE=-1.71D-12 OVMax= 5.62D-07

 SCF Done:  E(RB3LYP) =  -649.171417133     A.U. after   21 cycles
            NFock= 21  Conv=0.62D-08     -V/T= 2.0029
 KE= 6.472834118485D+02 PE=-1.715809977357D+03 EE= 3.409695029829D+02
 Leave Link  502 at Mon Aug 28 10:18:11 2023, MaxMem=  1610612736 cpu:              28.6 elap:               2.1
 (Enter /home/sekinelabo/g16/l601.exe)
 Copying SCF densities to generalized density rwf, IOpCl= 0 IROHF=0.

 **********************************************************************

            Population analysis using the SCF Density.

 **********************************************************************

 Orbital symmetries:
       Occupied  (A) (A) (A) (A) (A) (A) (A) (A) (A) (A) (A) (A)
                 (A) (A) (A) (A) (A) (A) (A) (A) (A) (A)
       Virtual   (A) (A) (A) (A) (A) (A) (A) (A) (A) (A) (A) (A)
                 (A) (A) (A) (A) (A) (A) (A) (A) (A) (A) (A) (A)
                 (A) (A) (A) (A) (A) (A) (A) (A) (A) (A) (A) (A)
                 (A) (A) (A) (A) (A) (A) (A) (A) (A) (A) (A) (A)
                 (A) (A) (A) (A) (A) (A) (A) (A) (A) (A) (A) (A)
                 (A) (A) (A) (A) (A) (A) (A) (A) (A) (A) (A) (A)
                 (A) (A) (A) (A) (A) (A) (A) (A) (A) (A) (A) (A)
                 (A) (A) (A) (A) (A) (A) (A) (A) (A) (A) (A) (A)
                 (A) (A)
 The electronic state is 1-A.
 Alpha  occ. eigenvalues --  -38.46531 -38.45625 -38.44625 -38.43926  -2.22208
 Alpha  occ. eigenvalues --   -2.21370  -2.20360  -2.19708  -1.15886  -1.15881
 Alpha  occ. eigenvalues --   -1.15857  -1.15045  -1.15035  -1.15012  -1.14036
 Alpha  occ. eigenvalues --   -1.14030  -1.13996  -1.13395  -1.13389  -1.13335
 Alpha  occ. eigenvalues --   -0.13968  -0.10984
 Alpha virt. eigenvalues --   -0.09081  -0.04876  -0.02967  -0.02940  -0.02182
 Alpha virt. eigenvalues --   -0.01332  -0.01056  -0.00942  -0.00633  -0.00138
 Alpha virt. eigenvalues --    0.00167   0.00939   0.01048   0.01083   0.01351
 Alpha virt. eigenvalues --    0.01464   0.01579   0.01629   0.01710   0.01803
 Alpha virt. eigenvalues --    0.01864   0.02223   0.02271   0.02388   0.03011
 Alpha virt. eigenvalues --    0.03134   0.03318   0.03463   0.04312   0.05398
 Alpha virt. eigenvalues --    0.06746   0.07084   0.07186   0.07530   0.07992
 Alpha virt. eigenvalues --    0.08064   0.08155   0.08270   0.08775   0.09738
 Alpha virt. eigenvalues --    0.10232   0.10594   0.11513   0.11841   0.14013
 Alpha virt. eigenvalues --    0.16080   0.28297   0.29264   0.30884   0.32750
 Alpha virt. eigenvalues --    0.33014   0.34028   0.34171   0.34225   0.34391
 Alpha virt. eigenvalues --    0.34973   0.35049   0.35495   0.35730   0.36100
 Alpha virt. eigenvalues --    0.38682   0.40062   0.40645   0.41854   0.42037
 Alpha virt. eigenvalues --    0.42098   0.43042   0.43113   0.43827   0.44291
 Alpha virt. eigenvalues --    0.45057   0.45396   0.45627   0.47700   0.47994
 Alpha virt. eigenvalues --    0.50038   0.56438   0.64278   2.00451   2.01337
 Alpha virt. eigenvalues --    2.08789   2.14467   4.41378   4.42017   4.42247
 Alpha virt. eigenvalues --    4.42483   4.43358   4.44342   4.44721   4.45090
 Alpha virt. eigenvalues --    4.45711   4.45845   4.47731   4.56776  96.19347
 Alpha virt. eigenvalues --   96.20497  96.29582  96.36166
          Condensed to atoms (all electrons):
               1          2          3          4
     1  Na  10.659109   0.096272   0.185776  -0.100672
     2  Na   0.096272  11.028256  -0.006766  -0.138507
     3  Na   0.185776  -0.006766  10.854625   0.234686
     4  Na  -0.100672  -0.138507   0.234686  10.916435
 Mulliken charges:
               1
     1  Na   0.159516
     2  Na   0.020745
     3  Na  -0.268320
     4  Na   0.088059
 Sum of Mulliken charges =  -0.00000
 Mulliken charges with hydrogens summed into heavy atoms:
               1
     1  Na   0.159516
     2  Na   0.020745
     3  Na  -0.268320
     4  Na   0.088059
 Electronic spatial extent (au):  <R**2>=           1884.7037
 Charge=             -0.0000 electrons
 Dipole moment (field-independent basis, Debye):
    X=             -0.6996    Y=             -0.2688    Z=             -0.0225  Tot=              0.7498
 Quadrupole moment (field-independent basis, Debye-Ang):
   XX=            -45.3246   YY=            -28.9956   ZZ=            -45.3085
   XY=             -1.9263   XZ=              0.0236   YZ=             -0.0042
 Traceless Quadrupole moment (field-independent basis, Debye-Ang):
   XX=             -5.4484   YY=             10.8806   ZZ=             -5.4323
   XY=             -1.9263   XZ=              0.0236   YZ=             -0.0042
 Octapole moment (field-independent basis, Debye-Ang**2):
  XXX=              6.9272  YYY=             15.6393  ZZZ=             -0.0402  XYY=             -4.6389
  XXY=            -10.2240  XXZ=             -0.2350  XZZ=              1.7564  YZZ=              1.8332
  YYZ=             -0.7306  XYZ=              0.8065
 Hexadecapole moment (field-independent basis, Debye-Ang**3):
 XXXX=          -2085.2892 YYYY=          -1180.6143 ZZZZ=           -199.6990 XXXY=            -23.6491
 XXXZ=             -1.3108 YYYX=            -79.4646 YYYZ=             -1.6176 ZZZX=              0.2553
 ZZZY=              0.0807 XXYY=           -475.3775 XXZZ=           -382.6972 YYZZ=           -255.6608
 XXYZ=              0.9906 YYXZ=              0.3615 ZZXY=             -3.6761
 N-N= 7.838564539177D+01 E-N=-1.715809976467D+03  KE= 6.472834118485D+02
 No NMR shielding tensors so no spin-rotation constants.
 Leave Link  601 at Mon Aug 28 10:18:11 2023, MaxMem=  1610612736 cpu:               0.9 elap:               0.1
 (Enter /home/sekinelabo/g16/l701.exe)
 ... and contract with generalized density number  0.
 Compute integral first derivatives.
 Leave Link  701 at Mon Aug 28 10:18:12 2023, MaxMem=  1610612736 cpu:               1.3 elap:               0.1
 (Enter /home/sekinelabo/g16/l702.exe)
 L702 exits ... SP integral derivatives will be done elsewhere.
 Leave Link  702 at Mon Aug 28 10:18:12 2023, MaxMem=  1610612736 cpu:               0.3 elap:               0.0
 (Enter /home/sekinelabo/g16/l703.exe)
 Integral derivatives from FoFJK, PRISM(SPDF).
 Compute integral first derivatives, UseDBF=F ICtDFT=           0.
 Calling FoFJK, ICntrl=      2127 FMM=F ISym2X=0 I1Cent= 0 IOpClX= 0 NMat=1 NMatS=1 NMatT=0.
 FoFJK:  IHMeth= 1 ICntrl=    2127 DoSepK=F KAlg= 0 I1Cent=           0 FoldK=F
 IRaf=         0 NMat=       1 IRICut=       1 DoRegI=T DoRafI=F ISym2E= 0 IDoP0=0 IntGTp=1.
 FoFCou: FMM=F IPFlag=           0 FMFlag=      100000 FMFlg1=         800
         NFxFlg=           0 DoJE=F BraDBF=F KetDBF=F FulRan=T
         wScrn=  0.000000 ICntrl=      2127 IOpCl=  0 I1Cent=           0 NGrid=           0
         NMat0=    1 NMatS0=      1 NMatT0=    0 NMatD0=    1 NMtDS0=    0 NMtDT0=    0
 Symmetry not used in FoFCou.
 Leave Link  703 at Mon Aug 28 10:18:12 2023, MaxMem=  1610612736 cpu:               5.9 elap:               0.4
 (Enter /home/sekinelabo/g16/l716.exe)
 Dipole        =-2.75255099D-01-1.05748706D-01-8.83391162D-03
 ***** Axes restored to original set *****
 -------------------------------------------------------------------
 Center     Atomic                   Forces (Hartrees/Bohr)
 Number     Number              X              Y              Z
 -------------------------------------------------------------------
      1       11          -0.003580429    0.000006554   -0.000733709
      2       11           0.003098495    0.000035308   -0.001544197
      3       11          -0.002696434   -0.000201311    0.004590583
      4       11           0.003178368    0.000159449   -0.002312677
 -------------------------------------------------------------------
 Cartesian Forces:  Max     0.004590583 RMS     0.002401475
 Z-matrix is all fixed cartesians, so copy forces.
 Force constants in Cartesian coordinates: 
                1             2             3             4             5 
      1  0.662097D-02
      2 -0.379292D-02  0.999347D+00
      3 -0.108321D-03  0.249529D-01  0.264433D-01
      4  0.000000D+00  0.000000D+00  0.000000D+00  0.100000D+01
      5  0.000000D+00  0.000000D+00  0.000000D+00  0.000000D+00  0.100000D+01
      6  0.000000D+00  0.000000D+00  0.000000D+00  0.000000D+00  0.000000D+00
      7 -0.116264D-01 -0.959894D-03  0.000000D+00  0.000000D+00  0.000000D+00
      8 -0.959894D-03 -0.792504D-04  0.000000D+00  0.000000D+00  0.000000D+00
      9 -0.323310D-02 -0.266930D-03 -0.258202D-01  0.000000D+00  0.000000D+00
     10  0.502426D-02  0.414811D-03  0.000000D+00  0.000000D+00  0.000000D+00
     11  0.414811D-03  0.342475D-04  0.000000D+00  0.000000D+00  0.000000D+00
     12  0.323310D-02  0.266930D-03  0.000000D+00  0.000000D+00  0.000000D+00
                6             7             8             9            10 
      6  0.100000D+01
      7  0.000000D+00  0.252608D-01
      8  0.000000D+00  0.208557D-02  0.172188D-03
      9  0.000000D+00 -0.179564D-02 -0.148251D-03  0.391210D-01
     10  0.000000D+00 -0.136344D-01 -0.112568D-02  0.502874D-02  0.862895D-02
     11  0.000000D+00 -0.112568D-02 -0.929376D-04  0.415181D-03 -0.362721D-02
     12  0.000000D+00  0.179564D-02  0.148251D-03 -0.133008D-01 -0.513706D-02
               11            12 
     11  0.999375D+00
     12  0.245381D-01  0.139239D-01
 Leave Link  716 at Mon Aug 28 10:18:12 2023, MaxMem=  1610612736 cpu:               0.3 elap:               0.0
 (Enter /home/sekinelabo/g16/l103.exe)

 GradGradGradGradGradGradGradGradGradGradGradGradGradGradGradGradGradGrad
 Berny optimization.
 Search for a local minimum.
 Step number   1 out of a maximum of    2
 All quantities printed in internal units (Hartrees-Bohrs-Radians)
 Second derivative matrix not updated -- first step.
 The second derivative matrix:
                          X1        Y1        Z1        X2        Y2
           X1           0.00662
           Y1          -0.00379   0.99935
           Z1          -0.00011   0.02495   0.02644
           X2           0.00000   0.00000   0.00000   1.00000
           Y2           0.00000   0.00000   0.00000  -0.00000   1.00000
           Z2           0.00000   0.00000   0.00000   0.00000   0.00000
           X3          -0.01163  -0.00096  -0.00000   0.00000   0.00000
           Y3          -0.00096  -0.00008   0.00000   0.00000   0.00000
           Z3          -0.00323  -0.00027  -0.02582   0.00000   0.00000
           X4           0.00502   0.00041  -0.00000   0.00000   0.00000
           Y4           0.00041   0.00003  -0.00000   0.00000   0.00000
           Z4           0.00323   0.00027  -0.00000   0.00000   0.00000
                          Z2        X3        Y3        Z3        X4
           Z2           1.00000
           X3           0.00000   0.02526
           Y3           0.00000   0.00209   0.00017
           Z3           0.00000  -0.00180  -0.00015   0.03912
           X4           0.00000  -0.01363  -0.00113   0.00503   0.00863
           Y4           0.00000  -0.00113  -0.00009   0.00042  -0.00363
           Z4           0.00000   0.00180   0.00015  -0.01330  -0.00514
                          Y4        Z4
           Y4           0.99938
           Z4           0.02454   0.01392
 ITU=  0
     Eigenvalues ---    0.01842   0.03817   0.06248   0.36336   0.42552
     Eigenvalues ---    0.75000
 Angle between quadratic step and forces=  45.23 degrees.
 Linear search not attempted -- first point.
 B after Tr=    -0.000000    0.000000    0.000000
         Rot=    1.000000   -0.000000   -0.000000    0.000000 Ang=   0.00 deg.
 Variable       Old X    -DE/DX   Delta X   Delta X   Delta X     New X
                                 (Linear)    (Quad)   (Total)
    X1       -0.00000  -0.00358   0.00000  -0.04026  -0.04026  -0.04026
    Y1       -0.00000   0.00001   0.00000  -0.00256  -0.00256  -0.00256
    Z1        0.00000  -0.00073   0.00000   0.06160   0.06160   0.06160
    X2      -10.68056   0.00310   0.00000   0.00590   0.00590 -10.67466
    Y2        0.00000   0.00004   0.00000   0.00012   0.00012   0.00012
    Z2        1.23503  -0.00154   0.00000  -0.00558  -0.00558   1.22945
    X3        0.00000  -0.00270   0.00000  -0.03260  -0.03260  -0.03260
    Y3       -0.00000  -0.00020   0.00000  -0.00274  -0.00274  -0.00274
    Z3        6.13271   0.00459   0.00000   0.09215   0.09215   6.22487
    X4       -3.64961   0.00318   0.00000   0.06696   0.06696  -3.58265
    Y4       -0.30132   0.00016   0.00000   0.00518   0.00518  -0.29614
    Z4       11.84289  -0.00231   0.00000  -0.14817  -0.14817  11.69472
         Item               Value     Threshold  Converged?
 Maximum Force            0.004591     0.000450     NO 
 RMS     Force            0.002401     0.000300     NO 
 Maximum Displacement     0.148172     0.001800     NO 
 RMS     Displacement     0.058819     0.001200     NO 
 Predicted change in Energy=-5.968339D-04
 GradGradGradGradGradGradGradGradGradGradGradGradGradGradGradGradGradGrad

 Leave Link  103 at Mon Aug 28 10:18:12 2023, MaxMem=  1610612736 cpu:               0.1 elap:               0.0
 (Enter /home/sekinelabo/g16/l9999.exe)
 1\1\GINC-SEKINELABO-XA7R-R37\Force\RB3LYP\6-311+G(d)\Na4\SEKINELABO\28
 -Aug-2023\0\\#p B3LYP/6-311+g(d) force\\\0,1\Na,0.,0.,0.\Na,-5.6519106
 018,0.,0.6535476328\Na,0.,0.,3.2452915419\Na,-1.9312929697,-0.15945066
 04,6.2669883121\\Version=ES64L-G16RevB.01\State=1-A\HF=-649.1714171\RM
 SD=6.194e-09\RMSF=2.401e-03\Dipole=-0.2383437,-0.0055329,-0.1737466\Qu
 adrupole=3.1952277,-4.0350045,0.8397768,0.1912237,-6.1220227,-0.131954
 8\PG=C01 [X(Na4)]\\@


 ERWIN WITH HIS PSI CAN DO
 CALCULATIONS QUITE A FEW.
 BUT ONE THING HAS NOT BEEN SEEN
 JUST WHAT DOES PSI REALLY MEAN.
 -- WALTER HUCKEL, TRANS. BY FELIX BLOCH
 Job cpu time:       0 days  0 hours  0 minutes 44.0 seconds.
 Elapsed time:       0 days  0 hours  0 minutes  3.0 seconds.
 File lengths (MBytes):  RWF=     10 Int=      0 D2E=      0 Chk=      2 Scr=      1
 Normal termination of Gaussian 16 at Mon Aug 28 10:18:12 2023.
