 Initial command:
 /home/sekinelabo/g16/l1.exe "/home/sekinelabo/g16temp/Gau-19052.inp" -scrdir="/home/sekinelabo/g16temp/"
 Entering Link 1 = /home/sekinelabo/g16/l1.exe PID=     20059.
  
 Copyright (c) 1988-2017, Gaussian, Inc.  All Rights Reserved.
  
 This is part of the Gaussian(R) 16 program.  It is based on
 the Gaussian(R) 09 system (copyright 2009, Gaussian, Inc.),
 the Gaussian(R) 03 system (copyright 2003, Gaussian, Inc.),
 the Gaussian(R) 98 system (copyright 1998, Gaussian, Inc.),
 the Gaussian(R) 94 system (copyright 1995, Gaussian, Inc.),
 the Gaussian 92(TM) system (copyright 1992, Gaussian, Inc.),
 the Gaussian 90(TM) system (copyright 1990, Gaussian, Inc.),
 the Gaussian 88(TM) system (copyright 1988, Gaussian, Inc.),
 the Gaussian 86(TM) system (copyright 1986, Carnegie Mellon
 University), and the Gaussian 82(TM) system (copyright 1983,
 Carnegie Mellon University). Gaussian is a federally registered
 trademark of Gaussian, Inc.
  
 This software contains proprietary and confidential information,
 including trade secrets, belonging to Gaussian, Inc.
  
 This software is provided under written license and may be
 used, copied, transmitted, or stored only in accord with that
 written license.
  
 The following legend is applicable only to US Government
 contracts under FAR:
  
                    RESTRICTED RIGHTS LEGEND
  
 Use, reproduction and disclosure by the US Government is
 subject to restrictions as set forth in subparagraphs (a)
 and (c) of the Commercial Computer Software - Restricted
 Rights clause in FAR 52.227-19.
  
 Gaussian, Inc.
 340 Quinnipiac St., Bldg. 40, Wallingford CT 06492
  
  
 ---------------------------------------------------------------
 Warning -- This program may not be used in any manner that
 competes with the business of Gaussian, Inc. or will provide
 assistance to any competitor of Gaussian, Inc.  The licensee
 of this program is prohibited from giving any competitor of
 Gaussian, Inc. access to this program.  By using this program,
 the user acknowledges that Gaussian, Inc. is engaged in the
 business of creating and licensing software in the field of
 computational chemistry and represents and warrants to the
 licensee that it is not a competitor of Gaussian, Inc. and that
 it will not use this program in any manner prohibited above.
 ---------------------------------------------------------------
  

 Cite this work as:
 Gaussian 16, Revision B.01,
 M. J. Frisch, G. W. Trucks, H. B. Schlegel, G. E. Scuseria, 
 M. A. Robb, J. R. Cheeseman, G. Scalmani, V. Barone, 
 G. A. Petersson, H. Nakatsuji, X. Li, M. Caricato, A. V. Marenich, 
 J. Bloino, B. G. Janesko, R. Gomperts, B. Mennucci, H. P. Hratchian, 
 J. V. Ortiz, A. F. Izmaylov, J. L. Sonnenberg, D. Williams-Young, 
 F. Ding, F. Lipparini, F. Egidi, J. Goings, B. Peng, A. Petrone, 
 T. Henderson, D. Ranasinghe, V. G. Zakrzewski, J. Gao, N. Rega, 
 G. Zheng, W. Liang, M. Hada, M. Ehara, K. Toyota, R. Fukuda, 
 J. Hasegawa, M. Ishida, T. Nakajima, Y. Honda, O. Kitao, H. Nakai, 
 T. Vreven, K. Throssell, J. A. Montgomery, Jr., J. E. Peralta, 
 F. Ogliaro, M. J. Bearpark, J. J. Heyd, E. N. Brothers, K. N. Kudin, 
 V. N. Staroverov, T. A. Keith, R. Kobayashi, J. Normand, 
 K. Raghavachari, A. P. Rendell, J. C. Burant, S. S. Iyengar, 
 J. Tomasi, M. Cossi, J. M. Millam, M. Klene, C. Adamo, R. Cammi, 
 J. W. Ochterski, R. L. Martin, K. Morokuma, O. Farkas, 
 J. B. Foresman, and D. J. Fox, Gaussian, Inc., Wallingford CT, 2016.
 
 ******************************************
 Gaussian 16:  ES64L-G16RevB.01 20-Dec-2017
                 8-Aug-2023 
 ******************************************
 %NProcShared=16
 Will use up to   16 processors via shared memory.
 %mem=12GB
 %Chk=checkpoint.chk
 -------------------------
 #p B3LYP/6-311+g(d) force
 -------------------------
 1/10=7,30=1,38=1/1,3;
 2/12=2,17=6,18=5,40=1/2;
 3/5=4,6=6,7=11,11=2,25=1,30=1,71=1,74=-5/1,2,3;
 4//1;
 5/5=2,38=5/2;
 6/7=2,8=2,9=2,10=2,28=1/1;
 7/29=1/1,2,3,16;
 1/10=7,30=1/3;
 99//99;
 Leave Link    1 at Tue Aug  8 11:07:15 2023, MaxMem=  1610612736 cpu:               0.2 elap:               0.0
 (Enter /home/sekinelabo/g16/l101.exe)
 ----
 Test
 ----
 Symbolic Z-matrix:
 Charge =  0 Multiplicity = 1
 Na                    0.        0.        0. 
 Na                   -2.11028   0.       -3.33074 
 Na                    0.        0.        3.02429 
 Na                    4.59341  -0.29809  -0.00755 
 
 ITRead=  0  0  0  0
 MicOpt= -1 -1 -1 -1
 NAtoms=      4 NQM=        4 NQMF=       0 NMMI=      0 NMMIF=      0
                NMic=       0 NMicF=      0.
                    Isotopes and Nuclear Properties:
 (Nuclear quadrupole moments (NQMom) in fm**2, nuclear magnetic moments (NMagM)
  in nuclear magnetons)

  Atom         1           2           3           4
 IAtWgt=          23          23          23          23
 AtmWgt=  22.9897697  22.9897697  22.9897697  22.9897697
 NucSpn=           3           3           3           3
 AtZEff=  -0.0000000  -0.0000000  -0.0000000  -0.0000000
 NQMom=   10.4000000  10.4000000  10.4000000  10.4000000
 NMagM=    2.2175200   2.2175200   2.2175200   2.2175200
 AtZNuc=  11.0000000  11.0000000  11.0000000  11.0000000
 Leave Link  101 at Tue Aug  8 11:07:15 2023, MaxMem=  1610612736 cpu:               1.5 elap:               0.1
 (Enter /home/sekinelabo/g16/l103.exe)

 GradGradGradGradGradGradGradGradGradGradGradGradGradGradGradGradGradGrad
 Berny optimization.
 Initialization pass.
 Trust Radius=3.00D-01 FncErr=1.00D-07 GrdErr=1.00D-07 EigMax=2.50D+02 EigMin=1.00D-04
 Number of steps in this run=      2 maximum allowed number of steps=      2.
 GradGradGradGradGradGradGradGradGradGradGradGradGradGradGradGradGradGrad

 Leave Link  103 at Tue Aug  8 11:07:15 2023, MaxMem=  1610612736 cpu:               0.2 elap:               0.0
 (Enter /home/sekinelabo/g16/l202.exe)
                          Input orientation:                          
 ---------------------------------------------------------------------
 Center     Atomic      Atomic             Coordinates (Angstroms)
 Number     Number       Type             X           Y           Z
 ---------------------------------------------------------------------
      1         11           0        0.000000    0.000000    0.000000
      2         11           0       -2.110283    0.000000   -3.330744
      3         11           0        0.000000    0.000000    3.024294
      4         11           0        4.593406   -0.298092   -0.007549
 ---------------------------------------------------------------------
                    Distance matrix (angstroms):
                    1          2          3          4
     1  Na   0.000000
     2  Na   3.942988   0.000000
     3  Na   3.024294   6.696253   0.000000
     4  Na   4.603075   7.488120   5.511834   0.000000
 Stoichiometry    Na4
 Framework group  C1[X(Na4)]
 Deg. of freedom     6
 Full point group                 C1      NOp   1
 Largest Abelian subgroup         C1      NOp   1
 Largest concise Abelian subgroup C1      NOp   1
                         Standard orientation:                         
 ---------------------------------------------------------------------
 Center     Atomic      Atomic             Coordinates (Angstroms)
 Number     Number       Type             X           Y           Z
 ---------------------------------------------------------------------
      1         11           0        0.446740    0.442708    0.038958
      2         11           0        4.147083   -0.918057   -0.015211
      3         11           0       -1.394152    2.841533   -0.016783
      4         11           0       -3.199671   -2.366184   -0.006964
 ---------------------------------------------------------------------
 Rotational constants (GHZ):           1.4940009           0.7431256           0.4963218
 Leave Link  202 at Tue Aug  8 11:07:15 2023, MaxMem=  1610612736 cpu:               0.0 elap:               0.0
 (Enter /home/sekinelabo/g16/l301.exe)
 Standard basis: 6-311+G(d) (5D, 7F)
 Ernie: Thresh=  0.10000D-02 Tol=  0.10000D-05 Strict=F.
 There are   124 symmetry adapted cartesian basis functions of A   symmetry.
 There are   120 symmetry adapted basis functions of A   symmetry.
   120 basis functions,   200 primitive gaussians,   124 cartesian basis functions
    22 alpha electrons       22 beta electrons
       nuclear repulsion energy        81.0514337668 Hartrees.
 IExCor=  402 DFT=T Ex+Corr=B3LYP ExCW=0 ScaHFX=  0.200000
 ScaDFX=  0.800000  0.720000  1.000000  0.810000 ScalE2=  1.000000  1.000000
 IRadAn=      5 IRanWt=     -1 IRanGd=            0 ICorTp=0 IEmpDi=  4
 NAtoms=    4 NActive=    4 NUniq=    4 SFac= 1.00D+00 NAtFMM=   60 NAOKFM=F Big=F
 Integral buffers will be    131072 words long.
 Raffenetti 2 integral format.
 Two-electron integral symmetry is turned on.
 Leave Link  301 at Tue Aug  8 11:07:15 2023, MaxMem=  1610612736 cpu:               0.4 elap:               0.0
 (Enter /home/sekinelabo/g16/l302.exe)
 NPDir=0 NMtPBC=     1 NCelOv=     1 NCel=       1 NClECP=     1 NCelD=      1
         NCelK=      1 NCelE2=     1 NClLst=     1 CellRange=     0.0.
 One-electron integrals computed using PRISM.
 One-electron integral symmetry used in STVInt
 NBasis=   120 RedAO= T EigKep=  2.82D-05  NBF=   120
 NBsUse=   120 1.00D-06 EigRej= -1.00D+00 NBFU=   120
 Precomputing XC quadrature grid using
 IXCGrd= 4 IRadAn=           5 IRanWt=          -1 IRanGd=           0 AccXCQ= 0.00D+00.
 Generated NRdTot=       0 NPtTot=           0 NUsed=           0 NTot=          32
 NSgBfM=   117   117   117   117   117 MxSgAt=     4 MxSgA2=     4.
 Leave Link  302 at Tue Aug  8 11:07:15 2023, MaxMem=  1610612736 cpu:               1.3 elap:               0.1
 (Enter /home/sekinelabo/g16/l303.exe)
 DipDrv:  MaxL=1.
 Leave Link  303 at Tue Aug  8 11:07:15 2023, MaxMem=  1610612736 cpu:               0.3 elap:               0.0
 (Enter /home/sekinelabo/g16/l401.exe)
 ExpMin= 7.60D-03 ExpMax= 3.62D+04 ExpMxC= 1.21D+03 IAcc=3 IRadAn=         5 AccDes= 0.00D+00
 Harris functional with IExCor=  402 and IRadAn=       5 diagonalized for initial guess.
 HarFok:  IExCor=  402 AccDes= 0.00D+00 IRadAn=         5 IDoV= 1 UseB2=F ITyADJ=14
 ICtDFT=  3500011 ScaDFX=  1.000000  1.000000  1.000000  1.000000
 FoFCou: FMM=F IPFlag=           0 FMFlag=      100000 FMFlg1=           0
         NFxFlg=           0 DoJE=T BraDBF=F KetDBF=T FulRan=T
         wScrn=  0.000000 ICntrl=       500 IOpCl=  0 I1Cent=   200000004 NGrid=           0
         NMat0=    1 NMatS0=      1 NMatT0=    0 NMatD0=    1 NMtDS0=    0 NMtDT0=    0
 Petite list used in FoFCou.
 Harris En= -649.050549411679    
 JPrj=0 DoOrth=F DoCkMO=F.
 Leave Link  401 at Tue Aug  8 11:07:15 2023, MaxMem=  1610612736 cpu:               2.0 elap:               0.1
 (Enter /home/sekinelabo/g16/l502.exe)
 Keep R1 ints in memory in canonical form, NReq=41581754.
 FoFCou: FMM=F IPFlag=           0 FMFlag=           0 FMFlg1=           0
         NFxFlg=           0 DoJE=F BraDBF=F KetDBF=F FulRan=T
         wScrn=  0.000000 ICntrl=       600 IOpCl=  0 I1Cent=           0 NGrid=           0
         NMat0=    1 NMatS0=   7260 NMatT0=    0 NMatD0=    1 NMtDS0=    0 NMtDT0=    0
 Symmetry not used in FoFCou.
 Two-electron integral symmetry not used.
 Closed shell SCF:
 Using DIIS extrapolation, IDIIS=  1040.
 NGot=  1610612736 LenX=  1584221388 LenY=  1584205571
 Requested convergence on RMS density matrix=1.00D-08 within 128 cycles.
 Requested convergence on MAX density matrix=1.00D-06.
 Requested convergence on             energy=1.00D-06.
 No special actions if energy rises.

 Cycle   1  Pass 1  IDiag  1:
 E= -649.119751138617    
 DIIS: error= 1.26D-02 at cycle   1 NSaved=   1.
 NSaved= 1 IEnMin= 1 EnMin= -649.119751138617     IErMin= 1 ErrMin= 1.26D-02
 ErrMax= 1.26D-02  0.00D+00 EMaxC= 1.00D-01 BMatC= 2.92D-02 BMatP= 2.92D-02
 IDIUse=3 WtCom= 8.74D-01 WtEn= 1.26D-01
 Coeff-Com:  0.100D+01
 Coeff-En:   0.100D+01
 Coeff:      0.100D+01
 Gap=    -0.068 Goal=   None    Shift=    0.000
 GapD=   -0.068 DampG=0.250 DampE=0.500 DampFc=0.2500 IDamp=-1.
 Damping current iteration by 2.50D-01
 RMSDP=2.07D-02 MaxDP=9.12D-01              OVMax= 7.37D-01

 Cycle   2  Pass 1  IDiag  1:
 E= -649.148169078304     Delta-E=       -0.028417939687 Rises=F Damp=T
 DIIS: error= 8.70D-03 at cycle   2 NSaved=   2.
 NSaved= 2 IEnMin= 2 EnMin= -649.148169078304     IErMin= 2 ErrMin= 8.70D-03
 ErrMax= 8.70D-03  0.00D+00 EMaxC= 1.00D-01 BMatC= 1.01D-02 BMatP= 2.92D-02
 IDIUse=3 WtCom= 9.13D-01 WtEn= 8.70D-02
 Coeff-Com: -0.840D+00 0.184D+01
 Coeff-En:   0.000D+00 0.100D+01
 Coeff:     -0.767D+00 0.177D+01
 Gap=     0.059 Goal=   None    Shift=    0.000
 RMSDP=6.86D-03 MaxDP=2.84D-01 DE=-2.84D-02 OVMax= 7.53D-01

 Cycle   3  Pass 1  IDiag  1:
 E= -649.085370351037     Delta-E=        0.062798727266 Rises=F Damp=F
 DIIS: error= 8.94D-03 at cycle   3 NSaved=   3.
 NSaved= 3 IEnMin= 2 EnMin= -649.148169078304     IErMin= 2 ErrMin= 8.70D-03
 ErrMax= 8.94D-03  0.00D+00 EMaxC= 1.00D-01 BMatC= 8.43D-03 BMatP= 1.01D-02
 IDIUse=3 WtCom= 9.11D-01 WtEn= 8.94D-02
 Rare condition: small coef for last iteration:  0.000D+00
 Coeff-Com: -0.639D+00 0.120D+01 0.438D+00
 Coeff-En:   0.000D+00 0.000D+00 0.100D+01
 Coeff:     -0.639D+00 0.120D+01 0.438D+00
 Gap=     0.004 Goal=   None    Shift=    0.000
 RMSDP=9.70D-03 MaxDP=5.25D-01 DE= 6.28D-02 OVMax= 8.96D-01

 Cycle   4  Pass 1  IDiag  1:
 E= -649.083605659168     Delta-E=        0.001764691869 Rises=F Damp=F
 DIIS: error= 1.02D-02 at cycle   4 NSaved=   4.
 NSaved= 4 IEnMin= 2 EnMin= -649.148169078304     IErMin= 2 ErrMin= 8.70D-03
 ErrMax= 1.02D-02  0.00D+00 EMaxC= 1.00D-01 BMatC= 7.41D-03 BMatP= 8.43D-03
 IDIUse=3 WtCom= 8.98D-01 WtEn= 1.02D-01
 EnCoef did    54 forward-backward iterations
 Coeff-Com: -0.412D+00 0.798D+00 0.410D+00 0.204D+00
 Coeff-En:   0.198D+00 0.000D+00 0.334D+00 0.468D+00
 Coeff:     -0.350D+00 0.716D+00 0.402D+00 0.231D+00
 Gap=     0.001 Goal=   None    Shift=    0.000
 RMSDP=7.19D-03 MaxDP=3.90D-01 DE= 1.76D-03 OVMax= 7.10D-01

 Cycle   5  Pass 1  IDiag  1:
 E= -649.161124586754     Delta-E=       -0.077518927586 Rises=F Damp=F
 DIIS: error= 5.01D-03 at cycle   5 NSaved=   5.
 NSaved= 5 IEnMin= 5 EnMin= -649.161124586754     IErMin= 5 ErrMin= 5.01D-03
 ErrMax= 5.01D-03  0.00D+00 EMaxC= 1.00D-01 BMatC= 1.04D-03 BMatP= 7.41D-03
 IDIUse=3 WtCom= 9.50D-01 WtEn= 5.01D-02
 Coeff-Com: -0.218D+00 0.336D+00 0.177D-01 0.139D+00 0.725D+00
 Coeff-En:   0.000D+00 0.000D+00 0.000D+00 0.222D+00 0.778D+00
 Coeff:     -0.207D+00 0.319D+00 0.168D-01 0.143D+00 0.728D+00
 Gap=     0.011 Goal=   None    Shift=    0.000
 RMSDP=2.18D-03 MaxDP=1.04D-01 DE=-7.75D-02 OVMax= 2.69D-01

 Cycle   6  Pass 1  IDiag  1:
 E= -649.171091358346     Delta-E=       -0.009966771592 Rises=F Damp=F
 DIIS: error= 2.06D-03 at cycle   6 NSaved=   6.
 NSaved= 6 IEnMin= 6 EnMin= -649.171091358346     IErMin= 6 ErrMin= 2.06D-03
 ErrMax= 2.06D-03  0.00D+00 EMaxC= 1.00D-01 BMatC= 1.68D-04 BMatP= 1.04D-03
 IDIUse=3 WtCom= 9.79D-01 WtEn= 2.06D-02
 Coeff-Com: -0.669D-01 0.911D-01-0.240D-01-0.357D-01 0.320D+00 0.716D+00
 Coeff-En:   0.000D+00 0.000D+00 0.000D+00 0.000D+00 0.202D+00 0.798D+00
 Coeff:     -0.655D-01 0.892D-01-0.235D-01-0.350D-01 0.317D+00 0.717D+00
 Gap=     0.017 Goal=   None    Shift=    0.000
 RMSDP=6.56D-04 MaxDP=2.78D-02 DE=-9.97D-03 OVMax= 5.50D-02

 Cycle   7  Pass 1  IDiag  1:
 E= -649.172417377737     Delta-E=       -0.001326019392 Rises=F Damp=F
 DIIS: error= 3.36D-04 at cycle   7 NSaved=   7.
 NSaved= 7 IEnMin= 7 EnMin= -649.172417377737     IErMin= 7 ErrMin= 3.36D-04
 ErrMax= 3.36D-04  0.00D+00 EMaxC= 1.00D-01 BMatC= 7.31D-06 BMatP= 1.68D-04
 IDIUse=3 WtCom= 9.97D-01 WtEn= 3.36D-03
 Coeff-Com: -0.187D-01 0.260D-01-0.682D-02-0.232D-01 0.108D+00 0.239D+00
 Coeff-Com:  0.675D+00
 Coeff-En:   0.000D+00 0.000D+00 0.000D+00 0.000D+00 0.000D+00 0.000D+00
 Coeff-En:   0.100D+01
 Coeff:     -0.186D-01 0.259D-01-0.680D-02-0.231D-01 0.108D+00 0.238D+00
 Coeff:      0.676D+00
 Gap=     0.017 Goal=   None    Shift=    0.000
 RMSDP=1.84D-04 MaxDP=7.16D-03 DE=-1.33D-03 OVMax= 1.36D-02

 Cycle   8  Pass 1  IDiag  1:
 E= -649.172353608824     Delta-E=        0.000063768913 Rises=F Damp=F
 DIIS: error= 5.87D-04 at cycle   8 NSaved=   8.
 NSaved= 8 IEnMin= 7 EnMin= -649.172417377737     IErMin= 7 ErrMin= 3.36D-04
 ErrMax= 5.87D-04  0.00D+00 EMaxC= 1.00D-01 BMatC= 1.45D-05 BMatP= 7.31D-06
 IDIUse=3 WtCom= 9.97D-01 WtEn= 3.36D-03
 Rare condition: small coef for last iteration:  0.000D+00
 Coeff-Com:  0.172D-02-0.198D-02 0.630D-04-0.138D-01 0.478D-01-0.347D-01
 Coeff-Com:  0.330D+00 0.671D+00
 Coeff-En:   0.000D+00 0.000D+00 0.000D+00 0.000D+00 0.000D+00 0.000D+00
 Coeff-En:   0.000D+00 0.100D+01
 Coeff:      0.172D-02-0.198D-02 0.630D-04-0.138D-01 0.478D-01-0.347D-01
 Coeff:      0.330D+00 0.671D+00
 Gap=     0.018 Goal=   None    Shift=    0.000
 RMSDP=1.14D-04 MaxDP=5.27D-03 DE= 6.38D-05 OVMax= 1.04D-02

 Cycle   9  Pass 1  IDiag  1:
 E= -649.172234376451     Delta-E=        0.000119232373 Rises=F Damp=F
 DIIS: error= 8.03D-04 at cycle   9 NSaved=   9.
 NSaved= 9 IEnMin= 7 EnMin= -649.172417377737     IErMin= 7 ErrMin= 3.36D-04
 ErrMax= 8.03D-04  0.00D+00 EMaxC= 1.00D-01 BMatC= 2.73D-05 BMatP= 7.31D-06
 IDIUse=3 WtCom= 9.97D-01 WtEn= 3.36D-03
 Rare condition: small coef for last iteration:  0.000D+00
 Coeff-Com:  0.166D-02-0.190D-02 0.262D-04-0.143D-01 0.516D-01-0.383D-01
 Coeff-Com:  0.289D+00 0.639D+00 0.740D-01
 Coeff-En:   0.000D+00 0.000D+00 0.000D+00 0.000D+00 0.375D-01 0.000D+00
 Coeff-En:   0.000D+00 0.000D+00 0.963D+00
 Coeff:      0.166D-02-0.190D-02 0.262D-04-0.143D-01 0.516D-01-0.383D-01
 Coeff:      0.289D+00 0.639D+00 0.740D-01
 Gap=     0.018 Goal=   None    Shift=    0.000
 RMSDP=4.56D-06 MaxDP=1.78D-04 DE= 1.19D-04 OVMax= 4.79D-04

 Cycle  10  Pass 1  IDiag  1:
 E= -649.172227113910     Delta-E=        0.000007262541 Rises=F Damp=F
 DIIS: error= 8.16D-04 at cycle  10 NSaved=  10.
 NSaved=10 IEnMin= 7 EnMin= -649.172417377737     IErMin= 7 ErrMin= 3.36D-04
 ErrMax= 8.16D-04  0.00D+00 EMaxC= 1.00D-01 BMatC= 2.82D-05 BMatP= 7.31D-06
 IDIUse=3 WtCom= 9.97D-01 WtEn= 3.36D-03
 Rare condition: small coef for last iteration:  0.000D+00
 Coeff-Com:  0.284D-02-0.343D-02 0.813D-03-0.125D-01 0.376D-01-0.474D-01
 Coeff-Com:  0.292D+00 0.693D+00 0.453D+01-0.449D+01
 Coeff-En:   0.000D+00 0.000D+00 0.000D+00 0.000D+00 0.397D-01 0.000D+00
 Coeff-En:   0.000D+00 0.000D+00 0.000D+00 0.960D+00
 Coeff:      0.284D-02-0.343D-02 0.813D-03-0.125D-01 0.376D-01-0.474D-01
 Coeff:      0.292D+00 0.693D+00 0.453D+01-0.449D+01
 Gap=     0.018 Goal=   None    Shift=    0.000
 RMSDP=2.11D-05 MaxDP=1.11D-03 DE= 7.26D-06 OVMax= 2.18D-03

 Cycle  11  Pass 1  IDiag  1:
 E= -649.172263180919     Delta-E=       -0.000036067010 Rises=F Damp=F
 DIIS: error= 7.54D-04 at cycle  11 NSaved=  11.
 NSaved=11 IEnMin= 7 EnMin= -649.172417377737     IErMin= 7 ErrMin= 3.36D-04
 ErrMax= 7.54D-04  0.00D+00 EMaxC= 1.00D-01 BMatC= 2.40D-05 BMatP= 7.31D-06
 IDIUse=3 WtCom= 9.97D-01 WtEn= 3.36D-03
 Large coefficients: NSaved= 11 BigCof=   20.09 CofMax=   10.00 Det=-3.83D-10
 Inversion failed.  Reducing to 10 matrices.
 Large coefficients: NSaved= 10 BigCof=   23.35 CofMax=   10.00 Det=-8.55D-10
 Inversion failed.  Reducing to  9 matrices.
 Large coefficients: NSaved=  9 BigCof=   22.17 CofMax=   10.00 Det=-8.71D-10
 Inversion failed.  Reducing to  8 matrices.
 Large coefficients: NSaved=  8 BigCof=   22.36 CofMax=   10.00 Det=-8.73D-10
 Inversion failed.  Reducing to  7 matrices.
 Large coefficients: NSaved=  7 BigCof=   22.50 CofMax=   10.00 Det=-8.77D-10
 Inversion failed.  Reducing to  6 matrices.
 Large coefficients: NSaved=  6 BigCof=   23.91 CofMax=   10.00 Det=-1.57D-09
 Inversion failed.  Reducing to  5 matrices.
 Large coefficients: NSaved=  5 BigCof=   24.02 CofMax=   10.00 Det=-1.59D-09
 Inversion failed.  Reducing to  4 matrices.
 Coeff-Com:  0.375D+00 0.394D+00-0.749D+01 0.772D+01
 Coeff-En:   0.000D+00 0.000D+00 0.000D+00 0.100D+01
 Coeff:      0.373D+00 0.393D+00-0.747D+01 0.770D+01
 Gap=     0.018 Goal=   None    Shift=    0.000
 RMSDP=2.34D-04 MaxDP=1.20D-02 DE=-3.61D-05 OVMax= 2.52D-02

 Cycle  12  Pass 1  IDiag  1:
 E= -649.172465215273     Delta-E=       -0.000202034354 Rises=F Damp=F
 DIIS: error= 6.60D-05 at cycle  12 NSaved=   5.
 NSaved= 5 IEnMin= 5 EnMin= -649.172465215273     IErMin= 5 ErrMin= 6.60D-05
 ErrMax= 6.60D-05  0.00D+00 EMaxC= 1.00D-01 BMatC= 7.10D-07 BMatP= 7.31D-06
 IDIUse=1 WtCom= 1.00D+00 WtEn= 0.00D+00
 Coeff-Com: -0.413D-02 0.121D-01-0.520D+01 0.562D+01 0.570D+00
 Coeff:     -0.413D-02 0.121D-01-0.520D+01 0.562D+01 0.570D+00
 Gap=     0.018 Goal=   None    Shift=    0.000
 RMSDP=3.62D-05 MaxDP=1.38D-03 DE=-2.02D-04 OVMax= 1.89D-03

 Cycle  13  Pass 1  IDiag  1:
 E= -649.172467788322     Delta-E=       -0.000002573048 Rises=F Damp=F
 DIIS: error= 1.48D-05 at cycle  13 NSaved=   6.
 NSaved= 6 IEnMin= 6 EnMin= -649.172467788322     IErMin= 6 ErrMin= 1.48D-05
 ErrMax= 1.48D-05  0.00D+00 EMaxC= 1.00D-01 BMatC= 2.33D-08 BMatP= 7.10D-07
 IDIUse=1 WtCom= 1.00D+00 WtEn= 0.00D+00
 Coeff-Com: -0.449D-01-0.301D-01-0.136D+01 0.150D+01 0.118D+00 0.824D+00
 Coeff:     -0.449D-01-0.301D-01-0.136D+01 0.150D+01 0.118D+00 0.824D+00
 Gap=     0.018 Goal=   None    Shift=    0.000
 RMSDP=1.08D-05 MaxDP=2.89D-04 DE=-2.57D-06 OVMax= 4.85D-04

 Cycle  14  Pass 1  IDiag  1:
 E= -649.172467874816     Delta-E=       -0.000000086494 Rises=F Damp=F
 DIIS: error= 1.39D-05 at cycle  14 NSaved=   7.
 NSaved= 7 IEnMin= 7 EnMin= -649.172467874816     IErMin= 7 ErrMin= 1.39D-05
 ErrMax= 1.39D-05  0.00D+00 EMaxC= 1.00D-01 BMatC= 7.71D-09 BMatP= 2.33D-08
 IDIUse=1 WtCom= 1.00D+00 WtEn= 0.00D+00
 Coeff-Com: -0.708D-02-0.107D-01 0.240D+00-0.269D+00-0.237D-01 0.166D+00
 Coeff-Com:  0.904D+00
 Coeff:     -0.708D-02-0.107D-01 0.240D+00-0.269D+00-0.237D-01 0.166D+00
 Coeff:      0.904D+00
 Gap=     0.018 Goal=   None    Shift=    0.000
 RMSDP=5.63D-06 MaxDP=1.82D-04 DE=-8.65D-08 OVMax= 3.07D-04

 Cycle  15  Pass 1  IDiag  1:
 E= -649.172467934698     Delta-E=       -0.000000059882 Rises=F Damp=F
 DIIS: error= 3.62D-06 at cycle  15 NSaved=   8.
 NSaved= 8 IEnMin= 8 EnMin= -649.172467934698     IErMin= 8 ErrMin= 3.62D-06
 ErrMax= 3.62D-06  0.00D+00 EMaxC= 1.00D-01 BMatC= 5.08D-10 BMatP= 7.71D-09
 IDIUse=1 WtCom= 1.00D+00 WtEn= 0.00D+00
 Coeff-Com:  0.552D-02 0.195D-02 0.647D-01-0.759D-01-0.132D-02-0.690D-01
 Coeff-Com: -0.593D-01 0.113D+01
 Coeff:      0.552D-02 0.195D-02 0.647D-01-0.759D-01-0.132D-02-0.690D-01
 Coeff:     -0.593D-01 0.113D+01
 Gap=     0.018 Goal=   None    Shift=    0.000
 RMSDP=1.67D-06 MaxDP=4.27D-05 DE=-5.99D-08 OVMax= 8.67D-05

 Cycle  16  Pass 1  IDiag  1:
 E= -649.172467938632     Delta-E=       -0.000000003934 Rises=F Damp=F
 DIIS: error= 6.51D-07 at cycle  16 NSaved=   9.
 NSaved= 9 IEnMin= 9 EnMin= -649.172467938632     IErMin= 9 ErrMin= 6.51D-07
 ErrMax= 6.51D-07  0.00D+00 EMaxC= 1.00D-01 BMatC= 2.06D-11 BMatP= 5.08D-10
 IDIUse=1 WtCom= 1.00D+00 WtEn= 0.00D+00
 Coeff-Com:  0.921D-03 0.361D-03 0.171D-03-0.136D-02 0.890D-03-0.182D-01
 Coeff-Com: -0.425D-01 0.215D+00 0.845D+00
 Coeff:      0.921D-03 0.361D-03 0.171D-03-0.136D-02 0.890D-03-0.182D-01
 Coeff:     -0.425D-01 0.215D+00 0.845D+00
 Gap=     0.018 Goal=   None    Shift=    0.000
 RMSDP=2.41D-07 MaxDP=8.19D-06 DE=-3.93D-09 OVMax= 1.26D-05

 Cycle  17  Pass 1  IDiag  1:
 E= -649.172467938766     Delta-E=       -0.000000000134 Rises=F Damp=F
 DIIS: error= 2.28D-07 at cycle  17 NSaved=  10.
 NSaved=10 IEnMin=10 EnMin= -649.172467938766     IErMin=10 ErrMin= 2.28D-07
 ErrMax= 2.28D-07  0.00D+00 EMaxC= 1.00D-01 BMatC= 2.21D-12 BMatP= 2.06D-11
 IDIUse=1 WtCom= 1.00D+00 WtEn= 0.00D+00
 Coeff-Com: -0.160D-03 0.258D-04-0.812D-02 0.877D-02 0.622D-03 0.133D-03
 Coeff-Com: -0.115D-01-0.427D-01 0.232D+00 0.821D+00
 Coeff:     -0.160D-03 0.258D-04-0.812D-02 0.877D-02 0.622D-03 0.133D-03
 Coeff:     -0.115D-01-0.427D-01 0.232D+00 0.821D+00
 Gap=     0.018 Goal=   None    Shift=    0.000
 RMSDP=9.38D-08 MaxDP=4.02D-06 DE=-1.34D-10 OVMax= 6.74D-06

 Cycle  18  Pass 1  IDiag  1:
 E= -649.172467938780     Delta-E=       -0.000000000014 Rises=F Damp=F
 DIIS: error= 5.51D-09 at cycle  18 NSaved=  11.
 NSaved=11 IEnMin=11 EnMin= -649.172467938780     IErMin=11 ErrMin= 5.51D-09
 ErrMax= 5.51D-09  0.00D+00 EMaxC= 1.00D-01 BMatC= 9.61D-15 BMatP= 2.21D-12
 IDIUse=1 WtCom= 1.00D+00 WtEn= 0.00D+00
 Coeff-Com: -0.414D-04-0.856D-05-0.155D-02 0.172D-02 0.113D-03 0.722D-03
 Coeff-Com: -0.148D-02-0.120D-01 0.528D-02 0.130D+00 0.877D+00
 Coeff:     -0.414D-04-0.856D-05-0.155D-02 0.172D-02 0.113D-03 0.722D-03
 Coeff:     -0.148D-02-0.120D-01 0.528D-02 0.130D+00 0.877D+00
 Gap=     0.018 Goal=   None    Shift=    0.000
 RMSDP=1.07D-08 MaxDP=3.16D-07 DE=-1.36D-11 OVMax= 3.46D-07

 Cycle  19  Pass 1  IDiag  1:
 E= -649.172467938783     Delta-E=       -0.000000000003 Rises=F Damp=F
 DIIS: error= 2.11D-09 at cycle  19 NSaved=  12.
 NSaved=12 IEnMin=12 EnMin= -649.172467938783     IErMin=12 ErrMin= 2.11D-09
 ErrMax= 2.11D-09  0.00D+00 EMaxC= 1.00D-01 BMatC= 9.74D-16 BMatP= 9.61D-15
 IDIUse=1 WtCom= 1.00D+00 WtEn= 0.00D+00
 Coeff-Com: -0.135D-04-0.173D-04 0.576D-04-0.373D-04-0.311D-05 0.294D-03
 Coeff-Com:  0.352D-03-0.112D-02-0.116D-01-0.172D-01 0.243D+00 0.786D+00
 Coeff:     -0.135D-04-0.173D-04 0.576D-04-0.373D-04-0.311D-05 0.294D-03
 Coeff:      0.352D-03-0.112D-02-0.116D-01-0.172D-01 0.243D+00 0.786D+00
 Gap=     0.018 Goal=   None    Shift=    0.000
 RMSDP=3.89D-09 MaxDP=1.18D-07 DE=-3.41D-12 OVMax= 9.59D-08

 SCF Done:  E(RB3LYP) =  -649.172467939     A.U. after   19 cycles
            NFock= 19  Conv=0.39D-08     -V/T= 2.0029
 KE= 6.472811995279D+02 PE=-1.721097466615D+03 EE= 3.435923653819D+02
 Leave Link  502 at Tue Aug  8 11:07:17 2023, MaxMem=  1610612736 cpu:              27.1 elap:               1.9
 (Enter /home/sekinelabo/g16/l601.exe)
 Copying SCF densities to generalized density rwf, IOpCl= 0 IROHF=0.

 **********************************************************************

            Population analysis using the SCF Density.

 **********************************************************************

 Orbital symmetries:
       Occupied  (A) (A) (A) (A) (A) (A) (A) (A) (A) (A) (A) (A)
                 (A) (A) (A) (A) (A) (A) (A) (A) (A) (A)
       Virtual   (A) (A) (A) (A) (A) (A) (A) (A) (A) (A) (A) (A)
                 (A) (A) (A) (A) (A) (A) (A) (A) (A) (A) (A) (A)
                 (A) (A) (A) (A) (A) (A) (A) (A) (A) (A) (A) (A)
                 (A) (A) (A) (A) (A) (A) (A) (A) (A) (A) (A) (A)
                 (A) (A) (A) (A) (A) (A) (A) (A) (A) (A) (A) (A)
                 (A) (A) (A) (A) (A) (A) (A) (A) (A) (A) (A) (A)
                 (A) (A) (A) (A) (A) (A) (A) (A) (A) (A) (A) (A)
                 (A) (A) (A) (A) (A) (A) (A) (A) (A) (A) (A) (A)
                 (A) (A)
 The electronic state is 1-A.
 Alpha  occ. eigenvalues --  -38.46739 -38.46068 -38.44151 -38.44126  -2.22499
 Alpha  occ. eigenvalues --   -2.21754  -2.19947  -2.19846  -1.16195  -1.16153
 Alpha  occ. eigenvalues --   -1.16125  -1.15436  -1.15430  -1.15394  -1.13662
 Alpha  occ. eigenvalues --   -1.13632  -1.13545  -1.13523  -1.13520  -1.13482
 Alpha  occ. eigenvalues --   -0.14431  -0.10713
 Alpha virt. eigenvalues --   -0.08913  -0.04993  -0.03163  -0.03009  -0.01889
 Alpha virt. eigenvalues --   -0.01230  -0.01117  -0.00875  -0.00619   0.00134
 Alpha virt. eigenvalues --    0.00203   0.00797   0.00954   0.01055   0.01233
 Alpha virt. eigenvalues --    0.01427   0.01783   0.01790   0.01898   0.01960
 Alpha virt. eigenvalues --    0.02049   0.02198   0.02358   0.02509   0.03289
 Alpha virt. eigenvalues --    0.03375   0.03498   0.03760   0.04292   0.05161
 Alpha virt. eigenvalues --    0.07022   0.07068   0.07492   0.07506   0.08088
 Alpha virt. eigenvalues --    0.08296   0.08504   0.08539   0.09061   0.09278
 Alpha virt. eigenvalues --    0.10202   0.10804   0.11338   0.12527   0.13807
 Alpha virt. eigenvalues --    0.16167   0.28432   0.29064   0.30379   0.31643
 Alpha virt. eigenvalues --    0.32356   0.34118   0.34309   0.34463   0.34639
 Alpha virt. eigenvalues --    0.35285   0.35606   0.35806   0.36136   0.37196
 Alpha virt. eigenvalues --    0.39194   0.39506   0.41613   0.41906   0.42255
 Alpha virt. eigenvalues --    0.42634   0.42980   0.43924   0.44090   0.44687
 Alpha virt. eigenvalues --    0.45473   0.46781   0.47475   0.48827   0.49499
 Alpha virt. eigenvalues --    0.50972   0.53278   0.70349   2.00280   2.03169
 Alpha virt. eigenvalues --    2.08073   2.13467   4.40831   4.41906   4.42366
 Alpha virt. eigenvalues --    4.42975   4.43419   4.43827   4.44792   4.45160
 Alpha virt. eigenvalues --    4.45952   4.46613   4.49068   4.63726  96.19207
 Alpha virt. eigenvalues --   96.22663  96.28490  96.35813
          Condensed to atoms (all electrons):
               1          2          3          4
     1  Na  10.908742   0.226897   0.247954   0.051982
     2  Na   0.226897  10.733889  -0.004759  -0.044728
     3  Na   0.247954  -0.004759  10.515449  -0.068672
     4  Na   0.051982  -0.044728  -0.068672  11.024570
 Mulliken charges:
               1
     1  Na  -0.435576
     2  Na   0.088701
     3  Na   0.310028
     4  Na   0.036847
 Sum of Mulliken charges =  -0.00000
 Mulliken charges with hydrogens summed into heavy atoms:
               1
     1  Na  -0.435576
     2  Na   0.088701
     3  Na   0.310028
     4  Na   0.036847
 Electronic spatial extent (au):  <R**2>=           1827.4685
 Charge=             -0.0000 electrons
 Dipole moment (field-independent basis, Debye):
    X=             -1.7020    Y=              1.2275    Z=             -0.0257  Tot=              2.0986
 Quadrupole moment (field-independent basis, Debye-Ang):
   XX=            -43.6641   YY=            -28.8893   ZZ=            -45.1982
   XY=             -5.0665   XZ=              0.0035   YZ=             -0.1116
 Traceless Quadrupole moment (field-independent basis, Debye-Ang):
   XX=             -4.4136   YY=             10.3613   ZZ=             -5.9477
   XY=             -5.0665   XZ=              0.0035   YZ=             -0.1116
 Octapole moment (field-independent basis, Debye-Ang**2):
  XXX=              9.4326  YYY=             52.7069  ZZZ=             -0.0393  XYY=            -34.0224
  XXY=             -2.2983  XXZ=             -0.6072  XZZ=             -3.6804  YZZ=              4.9732
  YYZ=             -0.5366  XYZ=              0.2541
 Hexadecapole moment (field-independent basis, Debye-Ang**3):
 XXXX=          -2107.7093 YYYY=           -850.3973 ZZZZ=           -198.9347 XXXY=            -65.3945
 XXXZ=             -1.3132 YYYX=            -93.5540 YYYZ=             -1.8197 ZZZX=              0.0750
 ZZZY=             -0.5799 XXYY=           -484.7850 XXZZ=           -418.1254 YYZZ=           -204.7906
 XXYZ=             -0.0273 YYXZ=              0.6012 ZZXY=            -12.0845
 N-N= 8.105143376683D+01 E-N=-1.721097466742D+03  KE= 6.472811995279D+02
 No NMR shielding tensors so no spin-rotation constants.
 Leave Link  601 at Tue Aug  8 11:07:17 2023, MaxMem=  1610612736 cpu:               0.9 elap:               0.1
 (Enter /home/sekinelabo/g16/l701.exe)
 ... and contract with generalized density number  0.
 Compute integral first derivatives.
 Leave Link  701 at Tue Aug  8 11:07:17 2023, MaxMem=  1610612736 cpu:               1.3 elap:               0.1
 (Enter /home/sekinelabo/g16/l702.exe)
 L702 exits ... SP integral derivatives will be done elsewhere.
 Leave Link  702 at Tue Aug  8 11:07:17 2023, MaxMem=  1610612736 cpu:               0.5 elap:               0.0
 (Enter /home/sekinelabo/g16/l703.exe)
 Integral derivatives from FoFJK, PRISM(SPDF).
 Compute integral first derivatives, UseDBF=F ICtDFT=           0.
 Calling FoFJK, ICntrl=      2127 FMM=F ISym2X=0 I1Cent= 0 IOpClX= 0 NMat=1 NMatS=1 NMatT=0.
 FoFJK:  IHMeth= 1 ICntrl=    2127 DoSepK=F KAlg= 0 I1Cent=           0 FoldK=F
 IRaf=         0 NMat=       1 IRICut=       1 DoRegI=T DoRafI=F ISym2E= 0 IDoP0=0 IntGTp=1.
 FoFCou: FMM=F IPFlag=           0 FMFlag=      100000 FMFlg1=         800
         NFxFlg=           0 DoJE=F BraDBF=F KetDBF=F FulRan=T
         wScrn=  0.000000 ICntrl=      2127 IOpCl=  0 I1Cent=           0 NGrid=           0
         NMat0=    1 NMatS0=      1 NMatT0=    0 NMatD0=    1 NMtDS0=    0 NMtDT0=    0
 Symmetry not used in FoFCou.
 Leave Link  703 at Tue Aug  8 11:07:18 2023, MaxMem=  1610612736 cpu:               5.9 elap:               0.4
 (Enter /home/sekinelabo/g16/l716.exe)
 Dipole        =-6.69616494D-01 4.82923467D-01-1.01170846D-02
 ***** Axes restored to original set *****
 -------------------------------------------------------------------
 Center     Atomic                   Forces (Hartrees/Bohr)
 Number     Number              X              Y              Z
 -------------------------------------------------------------------
      1       11          -0.001537164   -0.000082572   -0.008154129
      2       11           0.001482655    0.000063051    0.003992624
      3       11           0.003013798   -0.000201504    0.001412976
      4       11          -0.002959289    0.000221025    0.002748529
 -------------------------------------------------------------------
 Cartesian Forces:  Max     0.008154129 RMS     0.003088737
 Z-matrix is all fixed cartesians, so copy forces.
 Force constants in Cartesian coordinates: 
                1             2             3             4             5 
      1  0.269678D-01
      2  0.546633D-01  0.996575D+00
      3 -0.116159D-02 -0.183986D-01  0.453058D-01
      4 -0.113562D-01  0.000000D+00 -0.298961D-02  0.939560D-02
      5  0.000000D+00  0.000000D+00  0.000000D+00  0.546672D-01  0.996645D+00
      6  0.152401D-03  0.000000D+00 -0.922152D-02  0.198036D-02 -0.183999D-01
      7 -0.126133D-01  0.000000D+00  0.314202D-02  0.495917D-02  0.000000D+00
      8  0.000000D+00  0.000000D+00  0.000000D+00  0.000000D+00  0.000000D+00
      9  0.000000D+00  0.000000D+00 -0.357446D-01  0.000000D+00  0.000000D+00
     10  0.000000D+00  0.000000D+00  0.000000D+00  0.000000D+00  0.000000D+00
     11  0.000000D+00  0.000000D+00  0.000000D+00  0.000000D+00  0.000000D+00
     12  0.000000D+00  0.000000D+00  0.000000D+00  0.000000D+00  0.000000D+00
                6             7             8             9            10 
      6  0.956121D-02
      7 -0.314202D-02  0.106526D-01
      8  0.000000D+00  0.546662D-01  0.996627D+00
      9  0.000000D+00 -0.100924D-02 -0.183996D-01  0.360843D-01
     10  0.000000D+00  0.000000D+00  0.000000D+00  0.000000D+00  0.100000D+01
     11  0.000000D+00  0.000000D+00  0.000000D+00  0.000000D+00  0.000000D+00
     12  0.000000D+00  0.000000D+00  0.000000D+00  0.000000D+00  0.000000D+00
               11            12 
     11  0.100000D+01
     12  0.000000D+00  0.100000D+01
 Leave Link  716 at Tue Aug  8 11:07:18 2023, MaxMem=  1610612736 cpu:               0.3 elap:               0.0
 (Enter /home/sekinelabo/g16/l103.exe)

 GradGradGradGradGradGradGradGradGradGradGradGradGradGradGradGradGradGrad
 Berny optimization.
 Search for a local minimum.
 Step number   1 out of a maximum of    2
 All quantities printed in internal units (Hartrees-Bohrs-Radians)
 Second derivative matrix not updated -- first step.
 The second derivative matrix:
                          X1        Y1        Z1        X2        Y2
           X1           0.02697
           Y1           0.05466   0.99657
           Z1          -0.00116  -0.01840   0.04531
           X2          -0.01136  -0.00000  -0.00299   0.00940
           Y2          -0.00000   0.00000  -0.00000   0.05467   0.99665
           Z2           0.00015  -0.00000  -0.00922   0.00198  -0.01840
           X3          -0.01261  -0.00000   0.00314   0.00496   0.00000
           Y3          -0.00000  -0.00000  -0.00000   0.00000   0.00000
           Z3           0.00000  -0.00000  -0.03574   0.00000   0.00000
           X4           0.00000   0.00000   0.00000   0.00000   0.00000
           Y4           0.00000   0.00000   0.00000   0.00000   0.00000
           Z4           0.00000   0.00000   0.00000   0.00000   0.00000
                          Z2        X3        Y3        Z3        X4
           Z2           0.00956
           X3          -0.00314   0.01065
           Y3          -0.00000   0.05467   0.99663
           Z3          -0.00000  -0.00101  -0.01840   0.03608
           X4           0.00000   0.00000   0.00000   0.00000   1.00000
           Y4           0.00000   0.00000   0.00000   0.00000   0.00000
           Z4           0.00000   0.00000   0.00000   0.00000  -0.00000
                          Y4        Z4
           Y4           1.00000
           Z4           0.00000   1.00000
 ITU=  0
     Eigenvalues ---    0.01468   0.03598   0.07736   0.39245   0.75000
     Eigenvalues ---    1.00006
 Quadratic step=3.217D-01 exceeds max=3.000D-01 adjusted using Lamda=-1.203D-03.
 Angle between NR and scaled steps=   1.22 degrees.
 Angle between quadratic step and forces=  46.79 degrees.
 Linear search not attempted -- first point.
 B after Tr=    -0.000000    0.000000   -0.000000
         Rot=    1.000000    0.000000    0.000000   -0.000000 Ang=   0.00 deg.
 Variable       Old X    -DE/DX   Delta X   Delta X   Delta X     New X
                                 (Linear)    (Quad)   (Total)
    X1        0.00000  -0.00154   0.00000  -0.07196  -0.07196  -0.07196
    Y1        0.00000  -0.00008   0.00000   0.00117   0.00117   0.00117
    Z1        0.00000  -0.00815   0.00000  -0.15066  -0.15066  -0.15066
    X2       -3.98786   0.00148   0.00000   0.10228   0.10228  -3.88558
    Y2       -0.00000   0.00006   0.00000  -0.00029  -0.00029  -0.00029
    Z2       -6.29419   0.00399   0.00000   0.21446   0.21446  -6.07974
    X3       -0.00000   0.00301   0.00000  -0.02631  -0.02631  -0.02631
    Y3        0.00000  -0.00020   0.00000  -0.00101  -0.00101  -0.00101
    Z3        5.71509   0.00141   0.00000  -0.07084  -0.07084   5.64424
    X4        8.68028  -0.00296   0.00000  -0.00401  -0.00401   8.67627
    Y4       -0.56331   0.00022   0.00000   0.00013   0.00013  -0.56318
    Z4       -0.01427   0.00275   0.00000   0.00704   0.00704  -0.00722
         Item               Value     Threshold  Converged?
 Maximum Force            0.008154     0.000450     NO 
 RMS     Force            0.003089     0.000300     NO 
 Maximum Displacement     0.214456     0.001800     NO 
 RMS     Displacement     0.086654     0.001200     NO 
 Predicted change in Energy=-1.153645D-03
 GradGradGradGradGradGradGradGradGradGradGradGradGradGradGradGradGradGrad

 Leave Link  103 at Tue Aug  8 11:07:18 2023, MaxMem=  1610612736 cpu:               0.2 elap:               0.0
 (Enter /home/sekinelabo/g16/l9999.exe)
 1\1\GINC-SEKINELABO-XA7R-R37\Force\RB3LYP\6-311+G(d)\Na4\SEKINELABO\08
 -Aug-2023\0\\#p B3LYP/6-311+g(d) force\\Test\\0,1\Na,0.,0.,0.\Na,-2.11
 0283489,0.,-3.3307440213\Na,0.,0.,3.0242936642\Na,4.5934063924,-0.2980
 915771,-0.0075491645\\Version=ES64L-G16RevB.01\State=1-A\HF=-649.17246
 79\RMSD=3.894e-09\RMSF=3.089e-03\Dipole=0.2371022,-0.0085392,0.7908308
 \Quadrupole=-2.8567151,-4.4123076,7.2690227,-0.1171484,-4.3163914,0.38
 51242\PG=C01 [X(Na4)]\\@


 ALL MY ATTEMPTS TO ADAPT THE THEORETICAL FOUNDATIONS OF PHYSICS
 TO THESE NEW NOTIONS FAILED COMPLETELY. IT WAS AS IF THE GROUND HAD
 BEEN PULLED OUT FROM UNDER ONE WITH NO FIRM FOUNDATION TO BE SEEN ANYWHERE,
 UPON WHICH ONE COULD HAVE BUILT.  -- A.EINSTEIN
 Job cpu time:       0 days  0 hours  0 minutes 42.4 seconds.
 Elapsed time:       0 days  0 hours  0 minutes  2.9 seconds.
 File lengths (MBytes):  RWF=     10 Int=      0 D2E=      0 Chk=      2 Scr=      1
 Normal termination of Gaussian 16 at Tue Aug  8 11:07:18 2023.
