 Initial command:
 /home/sekinelabo/g16/l1.exe "/home/sekinelabo/g16temp/Gau-20140.inp" -scrdir="/home/sekinelabo/g16temp/"
 Entering Link 1 = /home/sekinelabo/g16/l1.exe PID=     21352.
  
 Copyright (c) 1988-2017, Gaussian, Inc.  All Rights Reserved.
  
 This is part of the Gaussian(R) 16 program.  It is based on
 the Gaussian(R) 09 system (copyright 2009, Gaussian, Inc.),
 the Gaussian(R) 03 system (copyright 2003, Gaussian, Inc.),
 the Gaussian(R) 98 system (copyright 1998, Gaussian, Inc.),
 the Gaussian(R) 94 system (copyright 1995, Gaussian, Inc.),
 the Gaussian 92(TM) system (copyright 1992, Gaussian, Inc.),
 the Gaussian 90(TM) system (copyright 1990, Gaussian, Inc.),
 the Gaussian 88(TM) system (copyright 1988, Gaussian, Inc.),
 the Gaussian 86(TM) system (copyright 1986, Carnegie Mellon
 University), and the Gaussian 82(TM) system (copyright 1983,
 Carnegie Mellon University). Gaussian is a federally registered
 trademark of Gaussian, Inc.
  
 This software contains proprietary and confidential information,
 including trade secrets, belonging to Gaussian, Inc.
  
 This software is provided under written license and may be
 used, copied, transmitted, or stored only in accord with that
 written license.
  
 The following legend is applicable only to US Government
 contracts under FAR:
  
                    RESTRICTED RIGHTS LEGEND
  
 Use, reproduction and disclosure by the US Government is
 subject to restrictions as set forth in subparagraphs (a)
 and (c) of the Commercial Computer Software - Restricted
 Rights clause in FAR 52.227-19.
  
 Gaussian, Inc.
 340 Quinnipiac St., Bldg. 40, Wallingford CT 06492
  
  
 ---------------------------------------------------------------
 Warning -- This program may not be used in any manner that
 competes with the business of Gaussian, Inc. or will provide
 assistance to any competitor of Gaussian, Inc.  The licensee
 of this program is prohibited from giving any competitor of
 Gaussian, Inc. access to this program.  By using this program,
 the user acknowledges that Gaussian, Inc. is engaged in the
 business of creating and licensing software in the field of
 computational chemistry and represents and warrants to the
 licensee that it is not a competitor of Gaussian, Inc. and that
 it will not use this program in any manner prohibited above.
 ---------------------------------------------------------------
  

 Cite this work as:
 Gaussian 16, Revision B.01,
 M. J. Frisch, G. W. Trucks, H. B. Schlegel, G. E. Scuseria, 
 M. A. Robb, J. R. Cheeseman, G. Scalmani, V. Barone, 
 G. A. Petersson, H. Nakatsuji, X. Li, M. Caricato, A. V. Marenich, 
 J. Bloino, B. G. Janesko, R. Gomperts, B. Mennucci, H. P. Hratchian, 
 J. V. Ortiz, A. F. Izmaylov, J. L. Sonnenberg, D. Williams-Young, 
 F. Ding, F. Lipparini, F. Egidi, J. Goings, B. Peng, A. Petrone, 
 T. Henderson, D. Ranasinghe, V. G. Zakrzewski, J. Gao, N. Rega, 
 G. Zheng, W. Liang, M. Hada, M. Ehara, K. Toyota, R. Fukuda, 
 J. Hasegawa, M. Ishida, T. Nakajima, Y. Honda, O. Kitao, H. Nakai, 
 T. Vreven, K. Throssell, J. A. Montgomery, Jr., J. E. Peralta, 
 F. Ogliaro, M. J. Bearpark, J. J. Heyd, E. N. Brothers, K. N. Kudin, 
 V. N. Staroverov, T. A. Keith, R. Kobayashi, J. Normand, 
 K. Raghavachari, A. P. Rendell, J. C. Burant, S. S. Iyengar, 
 J. Tomasi, M. Cossi, J. M. Millam, M. Klene, C. Adamo, R. Cammi, 
 J. W. Ochterski, R. L. Martin, K. Morokuma, O. Farkas, 
 J. B. Foresman, and D. J. Fox, Gaussian, Inc., Wallingford CT, 2016.
 
 ******************************************
 Gaussian 16:  ES64L-G16RevB.01 20-Dec-2017
                23-Aug-2023 
 ******************************************
 %NProcShared=16
 Will use up to   16 processors via shared memory.
 %mem=12GB
 %Chk=checkpoint.chk
 -------------------------
 #p B3LYP/6-311+g(d) force
 -------------------------
 1/10=7,30=1,38=1/1,3;
 2/12=2,17=6,18=5,40=1/2;
 3/5=4,6=6,7=11,11=2,25=1,30=1,71=1,74=-5/1,2,3;
 4//1;
 5/5=2,38=5/2;
 6/7=2,8=2,9=2,10=2,28=1/1;
 7/29=1/1,2,3,16;
 1/10=7,30=1/3;
 99//99;
 Leave Link    1 at Wed Aug 23 10:07:51 2023, MaxMem=  1610612736 cpu:               0.2 elap:               0.0
 (Enter /home/sekinelabo/g16/l101.exe)


 Symbolic Z-matrix:
 Charge =  0 Multiplicity = 1
 Na                    0.        0.        0. 
 Na                   -0.70823   0.       -3.69803 
 Na                    0.        0.        2.47366 
 Na                   -0.26532  -1.30636   5.16449 
 
 ITRead=  0  0  0  0
 MicOpt= -1 -1 -1 -1
 NAtoms=      4 NQM=        4 NQMF=       0 NMMI=      0 NMMIF=      0
                NMic=       0 NMicF=      0.
                    Isotopes and Nuclear Properties:
 (Nuclear quadrupole moments (NQMom) in fm**2, nuclear magnetic moments (NMagM)
  in nuclear magnetons)

  Atom         1           2           3           4
 IAtWgt=          23          23          23          23
 AtmWgt=  22.9897697  22.9897697  22.9897697  22.9897697
 NucSpn=           3           3           3           3
 AtZEff=  -0.0000000  -0.0000000  -0.0000000  -0.0000000
 NQMom=   10.4000000  10.4000000  10.4000000  10.4000000
 NMagM=    2.2175200   2.2175200   2.2175200   2.2175200
 AtZNuc=  11.0000000  11.0000000  11.0000000  11.0000000
 Leave Link  101 at Wed Aug 23 10:07:51 2023, MaxMem=  1610612736 cpu:               1.6 elap:               0.1
 (Enter /home/sekinelabo/g16/l103.exe)

 GradGradGradGradGradGradGradGradGradGradGradGradGradGradGradGradGradGrad
 Berny optimization.
 Initialization pass.
 Trust Radius=3.00D-01 FncErr=1.00D-07 GrdErr=1.00D-07 EigMax=2.50D+02 EigMin=1.00D-04
 Number of steps in this run=      2 maximum allowed number of steps=      2.
 GradGradGradGradGradGradGradGradGradGradGradGradGradGradGradGradGradGrad

 Leave Link  103 at Wed Aug 23 10:07:51 2023, MaxMem=  1610612736 cpu:               0.1 elap:               0.0
 (Enter /home/sekinelabo/g16/l202.exe)
                          Input orientation:                          
 ---------------------------------------------------------------------
 Center     Atomic      Atomic             Coordinates (Angstroms)
 Number     Number       Type             X           Y           Z
 ---------------------------------------------------------------------
      1         11           0        0.000000    0.000000    0.000000
      2         11           0       -0.708230    0.000000   -3.698034
      3         11           0        0.000000    0.000000    2.473662
      4         11           0       -0.265316   -1.306362    5.164491
 ---------------------------------------------------------------------
                    Distance matrix (angstroms):
                    1          2          3          4
     1  Na   0.000000
     2  Na   3.765242   0.000000
     3  Na   2.473662   6.212199   0.000000
     4  Na   5.333755   8.969231   3.002921   0.000000
 Stoichiometry    Na4
 Framework group  C1[X(Na4)]
 Deg. of freedom     6
 Full point group                 C1      NOp   1
 Largest Abelian subgroup         C1      NOp   1
 Largest concise Abelian subgroup C1      NOp   1
                         Standard orientation:                         
 ---------------------------------------------------------------------
 Center     Atomic      Atomic             Coordinates (Angstroms)
 Number     Number       Type             X           Y           Z
 ---------------------------------------------------------------------
      1         11           0        1.005185    0.319596    0.153764
      2         11           0        4.703743   -0.354517   -0.054284
      3         11           0       -1.444816    0.530350   -0.114715
      4         11           0       -4.264111   -0.495429    0.015235
 ---------------------------------------------------------------------
 Rotational constants (GHZ):          27.6677647           0.5059827           0.4977953
 Leave Link  202 at Wed Aug 23 10:07:51 2023, MaxMem=  1610612736 cpu:               0.0 elap:               0.0
 (Enter /home/sekinelabo/g16/l301.exe)
 Standard basis: 6-311+G(d) (5D, 7F)
 Ernie: Thresh=  0.10000D-02 Tol=  0.10000D-05 Strict=F.
 There are   124 symmetry adapted cartesian basis functions of A   symmetry.
 There are   120 symmetry adapted basis functions of A   symmetry.
   120 basis functions,   200 primitive gaussians,   124 cartesian basis functions
    22 alpha electrons       22 beta electrons
       nuclear repulsion energy        93.6641370206 Hartrees.
 IExCor=  402 DFT=T Ex+Corr=B3LYP ExCW=0 ScaHFX=  0.200000
 ScaDFX=  0.800000  0.720000  1.000000  0.810000 ScalE2=  1.000000  1.000000
 IRadAn=      5 IRanWt=     -1 IRanGd=            0 ICorTp=0 IEmpDi=  4
 NAtoms=    4 NActive=    4 NUniq=    4 SFac= 1.00D+00 NAtFMM=   60 NAOKFM=F Big=F
 Integral buffers will be    131072 words long.
 Raffenetti 2 integral format.
 Two-electron integral symmetry is turned on.
 Leave Link  301 at Wed Aug 23 10:07:51 2023, MaxMem=  1610612736 cpu:               0.3 elap:               0.0
 (Enter /home/sekinelabo/g16/l302.exe)
 NPDir=0 NMtPBC=     1 NCelOv=     1 NCel=       1 NClECP=     1 NCelD=      1
         NCelK=      1 NCelE2=     1 NClLst=     1 CellRange=     0.0.
 One-electron integrals computed using PRISM.
 One-electron integral symmetry used in STVInt
 NBasis=   120 RedAO= T EigKep=  1.15D-05  NBF=   120
 NBsUse=   119 1.00D-06 EigRej=  5.59D-07 NBFU=   119
 Precomputing XC quadrature grid using
 IXCGrd= 4 IRadAn=           5 IRanWt=          -1 IRanGd=           0 AccXCQ= 0.00D+00.
 Generated NRdTot=       0 NPtTot=           0 NUsed=           0 NTot=          32
 NSgBfM=   116   116   116   116   116 MxSgAt=     4 MxSgA2=     4.
 Leave Link  302 at Wed Aug 23 10:07:51 2023, MaxMem=  1610612736 cpu:               1.3 elap:               0.1
 (Enter /home/sekinelabo/g16/l303.exe)
 DipDrv:  MaxL=1.
 Leave Link  303 at Wed Aug 23 10:07:51 2023, MaxMem=  1610612736 cpu:               0.3 elap:               0.0
 (Enter /home/sekinelabo/g16/l401.exe)
 ExpMin= 7.60D-03 ExpMax= 3.62D+04 ExpMxC= 1.21D+03 IAcc=3 IRadAn=         5 AccDes= 0.00D+00
 Harris functional with IExCor=  402 and IRadAn=       5 diagonalized for initial guess.
 HarFok:  IExCor=  402 AccDes= 0.00D+00 IRadAn=         5 IDoV= 1 UseB2=F ITyADJ=14
 ICtDFT=  3500011 ScaDFX=  1.000000  1.000000  1.000000  1.000000
 FoFCou: FMM=F IPFlag=           0 FMFlag=      100000 FMFlg1=           0
         NFxFlg=           0 DoJE=T BraDBF=F KetDBF=T FulRan=T
         wScrn=  0.000000 ICntrl=       500 IOpCl=  0 I1Cent=   200000004 NGrid=           0
         NMat0=    1 NMatS0=      1 NMatT0=    0 NMatD0=    1 NMtDS0=    0 NMtDT0=    0
 Petite list used in FoFCou.
 Harris En= -649.055171172307    
 JPrj=0 DoOrth=F DoCkMO=F.
 Leave Link  401 at Wed Aug 23 10:07:51 2023, MaxMem=  1610612736 cpu:               2.0 elap:               0.1
 (Enter /home/sekinelabo/g16/l502.exe)
 Keep R1 ints in memory in canonical form, NReq=41581762.
 FoFCou: FMM=F IPFlag=           0 FMFlag=           0 FMFlg1=           0
         NFxFlg=           0 DoJE=F BraDBF=F KetDBF=F FulRan=T
         wScrn=  0.000000 ICntrl=       600 IOpCl=  0 I1Cent=           0 NGrid=           0
         NMat0=    1 NMatS0=   7260 NMatT0=    0 NMatD0=    1 NMtDS0=    0 NMtDT0=    0
 Symmetry not used in FoFCou.
 Two-electron integral symmetry not used.
 Closed shell SCF:
 Using DIIS extrapolation, IDIIS=  1040.
 NGot=  1610612736 LenX=  1584221380 LenY=  1584205563
 Requested convergence on RMS density matrix=1.00D-08 within 128 cycles.
 Requested convergence on MAX density matrix=1.00D-06.
 Requested convergence on             energy=1.00D-06.
 No special actions if energy rises.

 Cycle   1  Pass 1  IDiag  1:
 E= -649.168950328867    
 DIIS: error= 1.29D-02 at cycle   1 NSaved=   1.
 NSaved= 1 IEnMin= 1 EnMin= -649.168950328867     IErMin= 1 ErrMin= 1.29D-02
 ErrMax= 1.29D-02  0.00D+00 EMaxC= 1.00D-01 BMatC= 2.67D-02 BMatP= 2.67D-02
 IDIUse=3 WtCom= 8.71D-01 WtEn= 1.29D-01
 Coeff-Com:  0.100D+01
 Coeff-En:   0.100D+01
 Coeff:      0.100D+01
 Gap=     0.041 Goal=   None    Shift=    0.000
 GapD=    0.041 DampG=0.250 DampE=0.500 DampFc=0.2500 IDamp=-1.
 Damping current iteration by 2.50D-01
 RMSDP=7.87D-03 MaxDP=2.18D-01              OVMax= 1.58D-01

 Cycle   2  Pass 1  IDiag  1:
 E= -649.173475508161     Delta-E=       -0.004525179295 Rises=F Damp=T
 DIIS: error= 9.06D-03 at cycle   2 NSaved=   2.
 NSaved= 2 IEnMin= 2 EnMin= -649.173475508161     IErMin= 2 ErrMin= 9.06D-03
 ErrMax= 9.06D-03  0.00D+00 EMaxC= 1.00D-01 BMatC= 1.03D-02 BMatP= 2.67D-02
 IDIUse=3 WtCom= 9.09D-01 WtEn= 9.06D-02
 Coeff-Com: -0.129D+01 0.229D+01
 Coeff-En:   0.000D+00 0.100D+01
 Coeff:     -0.117D+01 0.217D+01
 Gap=     0.039 Goal=   None    Shift=    0.000
 RMSDP=5.03D-03 MaxDP=1.84D-01 DE=-4.53D-03 OVMax= 1.93D-01

 Cycle   3  Pass 1  IDiag  1:
 E= -649.179470676538     Delta-E=       -0.005995168377 Rises=F Damp=F
 DIIS: error= 3.74D-03 at cycle   3 NSaved=   3.
 NSaved= 3 IEnMin= 3 EnMin= -649.179470676538     IErMin= 3 ErrMin= 3.74D-03
 ErrMax= 3.74D-03  0.00D+00 EMaxC= 1.00D-01 BMatC= 5.16D-04 BMatP= 1.03D-02
 IDIUse=3 WtCom= 9.63D-01 WtEn= 3.74D-02
 Coeff-Com: -0.232D+00 0.425D+00 0.808D+00
 Coeff-En:   0.000D+00 0.000D+00 0.100D+01
 Coeff:     -0.224D+00 0.409D+00 0.815D+00
 Gap=     0.042 Goal=   None    Shift=    0.000
 RMSDP=3.37D-03 MaxDP=1.67D-01 DE=-6.00D-03 OVMax= 2.41D-01

 Cycle   4  Pass 1  IDiag  1:
 E= -649.172817033028     Delta-E=        0.006653643510 Rises=F Damp=F
 DIIS: error= 6.47D-03 at cycle   4 NSaved=   4.
 NSaved= 4 IEnMin= 3 EnMin= -649.179470676538     IErMin= 3 ErrMin= 3.74D-03
 ErrMax= 6.47D-03  0.00D+00 EMaxC= 1.00D-01 BMatC= 1.38D-03 BMatP= 5.16D-04
 IDIUse=3 WtCom= 1.11D-01 WtEn= 8.89D-01
 Coeff-Com:  0.228D-02 0.503D-02 0.621D+00 0.372D+00
 Coeff-En:   0.000D+00 0.000D+00 0.693D+00 0.307D+00
 Coeff:      0.252D-03 0.556D-03 0.685D+00 0.314D+00
 Gap=     0.043 Goal=   None    Shift=    0.000
 RMSDP=1.74D-03 MaxDP=9.62D-02 DE= 6.65D-03 OVMax= 1.44D-01

 Cycle   5  Pass 1  IDiag  1:
 E= -649.182313513847     Delta-E=       -0.009496480819 Rises=F Damp=F
 DIIS: error= 1.08D-03 at cycle   5 NSaved=   5.
 NSaved= 5 IEnMin= 5 EnMin= -649.182313513847     IErMin= 5 ErrMin= 1.08D-03
 ErrMax= 1.08D-03  0.00D+00 EMaxC= 1.00D-01 BMatC= 7.61D-05 BMatP= 5.16D-04
 IDIUse=3 WtCom= 9.89D-01 WtEn= 1.08D-02
 Coeff-Com:  0.153D-02-0.311D-02 0.345D+00 0.900D-01 0.566D+00
 Coeff-En:   0.000D+00 0.000D+00 0.139D+00 0.000D+00 0.861D+00
 Coeff:      0.151D-02-0.308D-02 0.343D+00 0.890D-01 0.570D+00
 Gap=     0.042 Goal=   None    Shift=    0.000
 RMSDP=4.91D-04 MaxDP=1.82D-02 DE=-9.50D-03 OVMax= 2.27D-02

 Cycle   6  Pass 1  IDiag  1:
 E= -649.182658882792     Delta-E=       -0.000345368945 Rises=F Damp=F
 DIIS: error= 2.20D-04 at cycle   6 NSaved=   6.
 NSaved= 6 IEnMin= 6 EnMin= -649.182658882792     IErMin= 6 ErrMin= 2.20D-04
 ErrMax= 2.20D-04  0.00D+00 EMaxC= 1.00D-01 BMatC= 1.82D-06 BMatP= 7.61D-05
 IDIUse=3 WtCom= 9.98D-01 WtEn= 2.20D-03
 Coeff-Com: -0.226D-02 0.226D-02 0.802D-01-0.121D-01 0.245D+00 0.687D+00
 Coeff-En:   0.000D+00 0.000D+00 0.000D+00 0.000D+00 0.000D+00 0.100D+01
 Coeff:     -0.226D-02 0.225D-02 0.800D-01-0.120D-01 0.245D+00 0.687D+00
 Gap=     0.042 Goal=   None    Shift=    0.000
 RMSDP=1.52D-04 MaxDP=4.11D-03 DE=-3.45D-04 OVMax= 4.45D-03

 Cycle   7  Pass 1  IDiag  1:
 E= -649.182668402340     Delta-E=       -0.000009519548 Rises=F Damp=F
 DIIS: error= 2.78D-05 at cycle   7 NSaved=   7.
 NSaved= 7 IEnMin= 7 EnMin= -649.182668402340     IErMin= 7 ErrMin= 2.78D-05
 ErrMax= 2.78D-05  0.00D+00 EMaxC= 1.00D-01 BMatC= 5.86D-08 BMatP= 1.82D-06
 IDIUse=1 WtCom= 1.00D+00 WtEn= 0.00D+00
 Coeff-Com: -0.676D-03 0.810D-03 0.251D-02-0.615D-02 0.122D-01 0.160D+00
 Coeff-Com:  0.831D+00
 Coeff:     -0.676D-03 0.810D-03 0.251D-02-0.615D-02 0.122D-01 0.160D+00
 Coeff:      0.831D+00
 Gap=     0.042 Goal=   None    Shift=    0.000
 RMSDP=2.60D-05 MaxDP=5.35D-04 DE=-9.52D-06 OVMax= 6.68D-04

 Cycle   8  Pass 1  IDiag  1:
 E= -649.182668576457     Delta-E=       -0.000000174117 Rises=F Damp=F
 DIIS: error= 1.31D-05 at cycle   8 NSaved=   8.
 NSaved= 8 IEnMin= 8 EnMin= -649.182668576457     IErMin= 8 ErrMin= 1.31D-05
 ErrMax= 1.31D-05  0.00D+00 EMaxC= 1.00D-01 BMatC= 4.84D-09 BMatP= 5.86D-08
 IDIUse=1 WtCom= 1.00D+00 WtEn= 0.00D+00
 Coeff-Com:  0.590D-04-0.876D-04-0.286D-03-0.178D-02-0.319D-02 0.255D-01
 Coeff-Com:  0.243D+00 0.736D+00
 Coeff:      0.590D-04-0.876D-04-0.286D-03-0.178D-02-0.319D-02 0.255D-01
 Coeff:      0.243D+00 0.736D+00
 Gap=     0.042 Goal=   None    Shift=    0.000
 RMSDP=7.71D-06 MaxDP=2.09D-04 DE=-1.74D-07 OVMax= 3.30D-04

 Cycle   9  Pass 1  IDiag  1:
 E= -649.182668611635     Delta-E=       -0.000000035177 Rises=F Damp=F
 DIIS: error= 2.00D-06 at cycle   9 NSaved=   9.
 NSaved= 9 IEnMin= 9 EnMin= -649.182668611635     IErMin= 9 ErrMin= 2.00D-06
 ErrMax= 2.00D-06  0.00D+00 EMaxC= 1.00D-01 BMatC= 2.91D-10 BMatP= 4.84D-09
 IDIUse=1 WtCom= 1.00D+00 WtEn= 0.00D+00
 Coeff-Com:  0.128D-03-0.167D-03-0.939D-03-0.111D-03-0.425D-02-0.507D-02
 Coeff-Com:  0.283D-01 0.282D+00 0.700D+00
 Coeff:      0.128D-03-0.167D-03-0.939D-03-0.111D-03-0.425D-02-0.507D-02
 Coeff:      0.283D-01 0.282D+00 0.700D+00
 Gap=     0.042 Goal=   None    Shift=    0.000
 RMSDP=2.95D-06 MaxDP=7.66D-05 DE=-3.52D-08 OVMax= 5.15D-05

 Cycle  10  Pass 1  IDiag  1:
 E= -649.182668612447     Delta-E=       -0.000000000812 Rises=F Damp=F
 DIIS: error= 2.54D-07 at cycle  10 NSaved=  10.
 NSaved=10 IEnMin=10 EnMin= -649.182668612447     IErMin=10 ErrMin= 2.54D-07
 ErrMax= 2.54D-07  0.00D+00 EMaxC= 1.00D-01 BMatC= 8.35D-12 BMatP= 2.91D-10
 IDIUse=1 WtCom= 1.00D+00 WtEn= 0.00D+00
 Coeff-Com:  0.374D-04-0.484D-04-0.246D-03 0.123D-03-0.107D-02-0.477D-02
 Coeff-Com: -0.141D-01 0.212D-01 0.909D-01 0.908D+00
 Coeff:      0.374D-04-0.484D-04-0.246D-03 0.123D-03-0.107D-02-0.477D-02
 Coeff:     -0.141D-01 0.212D-01 0.909D-01 0.908D+00
 Gap=     0.042 Goal=   None    Shift=    0.000
 RMSDP=1.07D-06 MaxDP=2.56D-05 DE=-8.12D-10 OVMax= 1.22D-05

 Cycle  11  Pass 1  IDiag  1:
 E= -649.182668612481     Delta-E=       -0.000000000034 Rises=F Damp=F
 DIIS: error= 1.22D-07 at cycle  11 NSaved=  11.
 NSaved=11 IEnMin=11 EnMin= -649.182668612481     IErMin=11 ErrMin= 1.22D-07
 ErrMax= 1.22D-07  0.00D+00 EMaxC= 1.00D-01 BMatC= 7.47D-13 BMatP= 8.35D-12
 IDIUse=1 WtCom= 1.00D+00 WtEn= 0.00D+00
 Coeff-Com: -0.401D-05 0.520D-05-0.192D-04 0.193D-04-0.320D-04-0.318D-03
 Coeff-Com: -0.138D-02-0.556D-02-0.221D-01 0.174D+00 0.856D+00
 Coeff:     -0.401D-05 0.520D-05-0.192D-04 0.193D-04-0.320D-04-0.318D-03
 Coeff:     -0.138D-02-0.556D-02-0.221D-01 0.174D+00 0.856D+00
 Gap=     0.042 Goal=   None    Shift=    0.000
 RMSDP=9.02D-08 MaxDP=1.86D-06 DE=-3.41D-11 OVMax= 2.26D-06

 Cycle  12  Pass 1  IDiag  1:
 E= -649.182668612482     Delta-E=       -0.000000000001 Rises=F Damp=F
 DIIS: error= 3.96D-08 at cycle  12 NSaved=  12.
 NSaved=12 IEnMin=12 EnMin= -649.182668612482     IErMin=12 ErrMin= 3.96D-08
 ErrMax= 3.96D-08  0.00D+00 EMaxC= 1.00D-01 BMatC= 3.99D-14 BMatP= 7.47D-13
 IDIUse=1 WtCom= 1.00D+00 WtEn= 0.00D+00
 Coeff-Com: -0.238D-05 0.310D-05-0.175D-05 0.192D-05 0.146D-04 0.131D-03
 Coeff-Com:  0.345D-03-0.164D-02-0.589D-02-0.774D-03 0.194D+00 0.814D+00
 Coeff:     -0.238D-05 0.310D-05-0.175D-05 0.192D-05 0.146D-04 0.131D-03
 Coeff:      0.345D-03-0.164D-02-0.589D-02-0.774D-03 0.194D+00 0.814D+00
 Gap=     0.042 Goal=   None    Shift=    0.000
 RMSDP=2.08D-08 MaxDP=7.85D-07 DE=-1.36D-12 OVMax= 1.12D-06

 Cycle  13  Pass 1  IDiag  1:
 E= -649.182668612486     Delta-E=       -0.000000000003 Rises=F Damp=F
 DIIS: error= 8.22D-09 at cycle  13 NSaved=  13.
 NSaved=13 IEnMin=13 EnMin= -649.182668612486     IErMin=13 ErrMin= 8.22D-09
 ErrMax= 8.22D-09  0.00D+00 EMaxC= 1.00D-01 BMatC= 1.59D-15 BMatP= 3.99D-14
 IDIUse=1 WtCom= 1.00D+00 WtEn= 0.00D+00
 Coeff-Com: -0.111D-06 0.151D-06 0.302D-06 0.304D-07 0.271D-05 0.325D-04
 Coeff-Com:  0.120D-03-0.179D-03-0.929D-04-0.703D-02 0.667D-02 0.245D+00
 Coeff-Com:  0.755D+00
 Coeff:     -0.111D-06 0.151D-06 0.302D-06 0.304D-07 0.271D-05 0.325D-04
 Coeff:      0.120D-03-0.179D-03-0.929D-04-0.703D-02 0.667D-02 0.245D+00
 Coeff:      0.755D+00
 Gap=     0.042 Goal=   None    Shift=    0.000
 RMSDP=2.95D-09 MaxDP=8.67D-08 DE=-3.30D-12 OVMax= 2.08D-07

 SCF Done:  E(RB3LYP) =  -649.182668612     A.U. after   13 cycles
            NFock= 13  Conv=0.29D-08     -V/T= 2.0027
 KE= 6.474113458022D+02 PE=-1.746413607471D+03 EE= 3.561554560359D+02
 Leave Link  502 at Wed Aug 23 10:07:53 2023, MaxMem=  1610612736 cpu:              19.7 elap:               1.4
 (Enter /home/sekinelabo/g16/l601.exe)
 Copying SCF densities to generalized density rwf, IOpCl= 0 IROHF=0.

 **********************************************************************

            Population analysis using the SCF Density.

 **********************************************************************

 Orbital symmetries:
       Occupied  (A) (A) (A) (A) (A) (A) (A) (A) (A) (A) (A) (A)
                 (A) (A) (A) (A) (A) (A) (A) (A) (A) (A)
       Virtual   (A) (A) (A) (A) (A) (A) (A) (A) (A) (A) (A) (A)
                 (A) (A) (A) (A) (A) (A) (A) (A) (A) (A) (A) (A)
                 (A) (A) (A) (A) (A) (A) (A) (A) (A) (A) (A) (A)
                 (A) (A) (A) (A) (A) (A) (A) (A) (A) (A) (A) (A)
                 (A) (A) (A) (A) (A) (A) (A) (A) (A) (A) (A) (A)
                 (A) (A) (A) (A) (A) (A) (A) (A) (A) (A) (A) (A)
                 (A) (A) (A) (A) (A) (A) (A) (A) (A) (A) (A) (A)
                 (A) (A) (A) (A) (A) (A) (A) (A) (A) (A) (A) (A)
                 (A)
 The electronic state is 1-A.
 Alpha  occ. eigenvalues --  -38.45249 -38.45244 -38.45202 -38.45024  -2.21167
 Alpha  occ. eigenvalues --   -2.20991  -2.20958  -2.20936  -1.15504  -1.14756
 Alpha  occ. eigenvalues --   -1.14749  -1.14686  -1.14640  -1.14639  -1.14632
 Alpha  occ. eigenvalues --   -1.14632  -1.14581  -1.14503  -1.14492  -1.14236
 Alpha  occ. eigenvalues --   -0.15290  -0.11943
 Alpha virt. eigenvalues --   -0.07727  -0.03691  -0.03455  -0.03188  -0.01667
 Alpha virt. eigenvalues --   -0.01608  -0.00832   0.00074   0.00135   0.00257
 Alpha virt. eigenvalues --    0.00459   0.01220   0.01358   0.01409   0.01461
 Alpha virt. eigenvalues --    0.01541   0.01623   0.02089   0.02195   0.02408
 Alpha virt. eigenvalues --    0.02507   0.02863   0.03148   0.03653   0.03718
 Alpha virt. eigenvalues --    0.04246   0.04689   0.05515   0.05830   0.07040
 Alpha virt. eigenvalues --    0.07179   0.07820   0.08139   0.08290   0.08354
 Alpha virt. eigenvalues --    0.08534   0.08674   0.09645   0.11069   0.11730
 Alpha virt. eigenvalues --    0.12778   0.13934   0.14688   0.16618   0.19875
 Alpha virt. eigenvalues --    0.27522   0.29530   0.29743   0.29840   0.34180
 Alpha virt. eigenvalues --    0.34281   0.34560   0.35003   0.35248   0.35539
 Alpha virt. eigenvalues --    0.36657   0.36760   0.38415   0.38586   0.40937
 Alpha virt. eigenvalues --    0.41866   0.42000   0.42985   0.43289   0.43514
 Alpha virt. eigenvalues --    0.44483   0.45209   0.45380   0.45877   0.45996
 Alpha virt. eigenvalues --    0.46894   0.49024   0.53164   0.59006   0.61376
 Alpha virt. eigenvalues --    0.74446   0.95424   2.03347   2.08695   2.09423
 Alpha virt. eigenvalues --    2.19368   4.41272   4.42033   4.43777   4.43797
 Alpha virt. eigenvalues --    4.44221   4.44505   4.45860   4.47805   4.48570
 Alpha virt. eigenvalues --    4.48958   4.62746   4.84329  96.22792  96.29638
 Alpha virt. eigenvalues --   96.32536  96.42733
          Condensed to atoms (all electrons):
               1          2          3          4
     1  Na  11.361354  -0.037388   0.615284  -0.320396
     2  Na  -0.037388  10.719509  -0.033898   0.047416
     3  Na   0.615284  -0.033898  11.294611  -0.464666
     4  Na  -0.320396   0.047416  -0.464666  11.011820
 Mulliken charges:
               1
     1  Na  -0.618854
     2  Na   0.304361
     3  Na  -0.411332
     4  Na   0.725826
 Sum of Mulliken charges =   0.00000
 Mulliken charges with hydrogens summed into heavy atoms:
               1
     1  Na  -0.618854
     2  Na   0.304361
     3  Na  -0.411332
     4  Na   0.725826
 Electronic spatial extent (au):  <R**2>=           1815.5069
 Charge=              0.0000 electrons
 Dipole moment (field-independent basis, Debye):
    X=             -0.5006    Y=             -0.4522    Z=             -0.0099  Tot=              0.6747
 Quadrupole moment (field-independent basis, Debye-Ang):
   XX=            -20.7249   YY=            -42.2974   ZZ=            -43.5649
   XY=              0.8273   XZ=             -0.6225   YZ=             -0.0796
 Traceless Quadrupole moment (field-independent basis, Debye-Ang):
   XX=             14.8041   YY=             -6.7683   ZZ=             -8.0358
   XY=              0.8273   XZ=             -0.6225   YZ=             -0.0796
 Octapole moment (field-independent basis, Debye-Ang**2):
  XXX=              7.7376  YYY=             -0.7672  ZZZ=              0.0091  XYY=             -5.7755
  XXY=            -29.9815  XXZ=             -1.3472  XZZ=             -3.4072  YZZ=             -0.1877
  YYZ=             -0.0740  XYZ=              0.5840
 Hexadecapole moment (field-independent basis, Debye-Ang**3):
 XXXX=          -1873.2891 YYYY=           -212.1667 ZZZZ=           -177.9687 XXXY=             27.6696
 XXXZ=            -23.4034 YYYX=              4.2480 YYYZ=             -0.6558 ZZZX=             -2.9952
 ZZZY=             -0.7017 XXYY=           -502.0011 XXZZ=           -513.3005 YYZZ=            -65.0937
 XXYZ=              0.0304 YYXZ=             -0.9054 ZZXY=              1.3408
 N-N= 9.366413702059D+01 E-N=-1.746413607593D+03  KE= 6.474113458022D+02
 No NMR shielding tensors so no spin-rotation constants.
 Leave Link  601 at Wed Aug 23 10:07:53 2023, MaxMem=  1610612736 cpu:               0.9 elap:               0.1
 (Enter /home/sekinelabo/g16/l701.exe)
 ... and contract with generalized density number  0.
 Compute integral first derivatives.
 Leave Link  701 at Wed Aug 23 10:07:53 2023, MaxMem=  1610612736 cpu:               1.3 elap:               0.1
 (Enter /home/sekinelabo/g16/l702.exe)
 L702 exits ... SP integral derivatives will be done elsewhere.
 Leave Link  702 at Wed Aug 23 10:07:53 2023, MaxMem=  1610612736 cpu:               0.4 elap:               0.0
 (Enter /home/sekinelabo/g16/l703.exe)
 Integral derivatives from FoFJK, PRISM(SPDF).
 Compute integral first derivatives, UseDBF=F ICtDFT=           0.
 Calling FoFJK, ICntrl=      2127 FMM=F ISym2X=0 I1Cent= 0 IOpClX= 0 NMat=1 NMatS=1 NMatT=0.
 FoFJK:  IHMeth= 1 ICntrl=    2127 DoSepK=F KAlg= 0 I1Cent=           0 FoldK=F
 IRaf=         0 NMat=       1 IRICut=       1 DoRegI=T DoRafI=F ISym2E= 0 IDoP0=0 IntGTp=1.
 FoFCou: FMM=F IPFlag=           0 FMFlag=      100000 FMFlg1=         800
         NFxFlg=           0 DoJE=F BraDBF=F KetDBF=F FulRan=T
         wScrn=  0.000000 ICntrl=      2127 IOpCl=  0 I1Cent=           0 NGrid=           0
         NMat0=    1 NMatS0=      1 NMatT0=    0 NMatD0=    1 NMtDS0=    0 NMtDT0=    0
 Symmetry not used in FoFCou.
 Leave Link  703 at Wed Aug 23 10:07:53 2023, MaxMem=  1610612736 cpu:               5.9 elap:               0.4
 (Enter /home/sekinelabo/g16/l716.exe)
 Dipole        =-1.96938432D-01-1.77911421D-01-3.87546486D-03
 ***** Axes restored to original set *****
 -------------------------------------------------------------------
 Center     Atomic                   Forces (Hartrees/Bohr)
 Number     Number              X              Y              Z
 -------------------------------------------------------------------
      1       11          -0.001204716   -0.000469650   -0.029009715
      2       11           0.001216607    0.000154177    0.006138053
      3       11           0.000142185    0.001486601    0.020619740
      4       11          -0.000154076   -0.001171128    0.002251922
 -------------------------------------------------------------------
 Cartesian Forces:  Max     0.029009715 RMS     0.010473321
 Z-matrix is all fixed cartesians, so copy forces.
 Force constants in Cartesian coordinates: 
                1             2             3             4             5 
      1  0.448035D-01
      2 -0.572351D-01  0.285025D+00
      3  0.165303D-03  0.000000D+00  0.111100D+00
      4 -0.126227D-01  0.000000D+00 -0.157911D-02  0.524049D-02
      5  0.227842D-01 -0.104996D+00  0.000000D+00  0.000000D+00  0.402284D-01
      6 -0.165303D-03  0.000000D+00 -0.131834D-01  0.157911D-02  0.000000D+00
      7 -0.443782D-01  0.110255D+00  0.141381D-02  0.738222D-02 -0.437297D-01
      8  0.352130D-01 -0.199243D+00  0.000000D+00  0.000000D+00  0.690212D-01
      9 -0.832680D-03 -0.409994D-02 -0.979161D-01  0.000000D+00  0.000000D+00
     10  0.121974D-01 -0.530201D-01  0.000000D+00  0.000000D+00  0.209454D-01
     11 -0.762103D-03  0.192132D-01  0.000000D+00  0.000000D+00 -0.425392D-02
     12  0.832680D-03  0.409994D-02  0.000000D+00  0.000000D+00  0.000000D+00
                6             7             8             9            10 
      6  0.131834D-01
      7 -0.141381D-02  0.606344D-01
      8  0.000000D+00 -0.668661D-01  0.158612D+00
      9  0.000000D+00 -0.147874D-02 -0.728100D-02  0.129122D+00
     10  0.000000D+00 -0.236384D-01  0.316532D-01  0.231142D-02  0.114409D-01
     11  0.000000D+00  0.340538D-03 -0.283903D-01  0.113809D-01  0.421566D-03
     12  0.000000D+00  0.147874D-02  0.728100D-02 -0.312058D-01 -0.231142D-02
               11            12 
     11  0.134310D-01
     12 -0.113809D-01  0.312058D-01
 Leave Link  716 at Wed Aug 23 10:07:53 2023, MaxMem=  1610612736 cpu:               0.3 elap:               0.0
 (Enter /home/sekinelabo/g16/l103.exe)

 GradGradGradGradGradGradGradGradGradGradGradGradGradGradGradGradGradGrad
 Berny optimization.
 Search for a local minimum.
 Step number   1 out of a maximum of    2
 All quantities printed in internal units (Hartrees-Bohrs-Radians)
 Second derivative matrix not updated -- first step.
 The second derivative matrix:
                          X1        Y1        Z1        X2        Y2
           X1           0.04480
           Y1          -0.05724   0.28503
           Z1           0.00017  -0.00000   0.11110
           X2          -0.01262  -0.00000  -0.00158   0.00524
           Y2           0.02278  -0.10500   0.00000   0.00000   0.04023
           Z2          -0.00017   0.00000  -0.01318   0.00158  -0.00000
           X3          -0.04438   0.11026   0.00141   0.00738  -0.04373
           Y3           0.03521  -0.19924  -0.00000   0.00000   0.06902
           Z3          -0.00083  -0.00410  -0.09792   0.00000   0.00000
           X4           0.01220  -0.05302   0.00000   0.00000   0.02095
           Y4          -0.00076   0.01921   0.00000  -0.00000  -0.00425
           Z4           0.00083   0.00410   0.00000   0.00000   0.00000
                          Z2        X3        Y3        Z3        X4
           Z2           0.01318
           X3          -0.00141   0.06063
           Y3          -0.00000  -0.06687   0.15861
           Z3          -0.00000  -0.00148  -0.00728   0.12912
           X4          -0.00000  -0.02364   0.03165   0.00231   0.01144
           Y4          -0.00000   0.00034  -0.02839   0.01138   0.00042
           Z4          -0.00000   0.00148   0.00728  -0.03121  -0.00231
                          Y4        Z4
           Y4           0.01343
           Z4          -0.01138   0.03121
 ITU=  0
     Eigenvalues ---    0.01388   0.02137   0.04989   0.06280   0.22246
     Eigenvalues ---    0.53361
 Quadratic step=3.343D-01 exceeds max=3.000D-01 adjusted using Lamda=-3.954D-03.
 Angle between NR and scaled steps=   4.60 degrees.
 Angle between quadratic step and forces=  42.50 degrees.
 Linear search not attempted -- first point.
 B after Tr=    -0.000000    0.000000    0.000000
         Rot=    1.000000   -0.000000    0.000000   -0.000000 Ang=   0.00 deg.
 Variable       Old X    -DE/DX   Delta X   Delta X   Delta X     New X
                                 (Linear)    (Quad)   (Total)
    X1        0.00000  -0.00120   0.00000  -0.02502  -0.02502  -0.02502
    Y1       -0.00000  -0.00047   0.00000   0.00367   0.00367   0.00367
    Z1        0.00000  -0.02901   0.00000  -0.23183  -0.23183  -0.23183
    X2       -1.33836   0.00122   0.00000   0.03182   0.03182  -1.30654
    Y2       -0.00000   0.00015   0.00000   0.00289   0.00289   0.00289
    Z2       -6.98827   0.00614   0.00000   0.17625   0.17625  -6.81202
    X3       -0.00000   0.00014   0.00000  -0.00487  -0.00487  -0.00487
    Y3       -0.00000   0.00149   0.00000   0.01067   0.01067   0.01067
    Z3        4.67454   0.02062   0.00000  -0.00049  -0.00049   4.67405
    X4       -0.50137  -0.00015   0.00000  -0.00193  -0.00193  -0.50331
    Y4       -2.46867  -0.00117   0.00000  -0.01723  -0.01723  -2.48589
    Z4        9.75947   0.00225   0.00000   0.05607   0.05607   9.81554
         Item               Value     Threshold  Converged?
 Maximum Force            0.029010     0.000450     NO 
 RMS     Force            0.010473     0.000300     NO 
 Maximum Displacement     0.231829     0.001800     NO 
 RMS     Displacement     0.086627     0.001200     NO 
 Predicted change in Energy=-4.191287D-03
 GradGradGradGradGradGradGradGradGradGradGradGradGradGradGradGradGradGrad

 Leave Link  103 at Wed Aug 23 10:07:53 2023, MaxMem=  1610612736 cpu:               0.1 elap:               0.0
 (Enter /home/sekinelabo/g16/l9999.exe)
 1\1\GINC-SEKINELABO-XA7R-R37\Force\RB3LYP\6-311+G(d)\Na4\SEKINELABO\23
 -Aug-2023\0\\#p B3LYP/6-311+g(d) force\\\0,1\Na,0.,0.,0.\Na,-0.7082298
 692,0.,-3.6980340715\Na,0.,0.,2.473661929\Na,-0.2653162119,-1.30636184
 22,5.1644906402\\Version=ES64L-G16RevB.01\State=1-A\HF=-649.1826686\RM
 SD=2.949e-09\RMSF=1.047e-02\Dipole=-0.0835473,-0.175948,0.1803175\Quad
 rupole=-5.7314703,-4.7563824,10.4878528,0.2210605,0.9724523,-2.8190481
 \PG=C01 [X(Na4)]\\@


 My opinions may have changed, but not the fact that I am right.
                       -- Ashleigh Brilliant
 Job cpu time:       0 days  0 hours  0 minutes 34.7 seconds.
 Elapsed time:       0 days  0 hours  0 minutes  2.4 seconds.
 File lengths (MBytes):  RWF=     10 Int=      0 D2E=      0 Chk=      2 Scr=      1
 Normal termination of Gaussian 16 at Wed Aug 23 10:07:53 2023.
 Initial command:
 /home/sekinelabo/g16/l1.exe "/home/sekinelabo/g16temp/Gau-2966229.inp" -scrdir="/home/sekinelabo/g16temp/"
 Entering Link 1 = /home/sekinelabo/g16/l1.exe PID=   2967441.
  
 Copyright (c) 1988-2017, Gaussian, Inc.  All Rights Reserved.
  
 This is part of the Gaussian(R) 16 program.  It is based on
 the Gaussian(R) 09 system (copyright 2009, Gaussian, Inc.),
 the Gaussian(R) 03 system (copyright 2003, Gaussian, Inc.),
 the Gaussian(R) 98 system (copyright 1998, Gaussian, Inc.),
 the Gaussian(R) 94 system (copyright 1995, Gaussian, Inc.),
 the Gaussian 92(TM) system (copyright 1992, Gaussian, Inc.),
 the Gaussian 90(TM) system (copyright 1990, Gaussian, Inc.),
 the Gaussian 88(TM) system (copyright 1988, Gaussian, Inc.),
 the Gaussian 86(TM) system (copyright 1986, Carnegie Mellon
 University), and the Gaussian 82(TM) system (copyright 1983,
 Carnegie Mellon University). Gaussian is a federally registered
 trademark of Gaussian, Inc.
  
 This software contains proprietary and confidential information,
 including trade secrets, belonging to Gaussian, Inc.
  
 This software is provided under written license and may be
 used, copied, transmitted, or stored only in accord with that
 written license.
  
 The following legend is applicable only to US Government
 contracts under FAR:
  
                    RESTRICTED RIGHTS LEGEND
  
 Use, reproduction and disclosure by the US Government is
 subject to restrictions as set forth in subparagraphs (a)
 and (c) of the Commercial Computer Software - Restricted
 Rights clause in FAR 52.227-19.
  
 Gaussian, Inc.
 340 Quinnipiac St., Bldg. 40, Wallingford CT 06492
  
  
 ---------------------------------------------------------------
 Warning -- This program may not be used in any manner that
 competes with the business of Gaussian, Inc. or will provide
 assistance to any competitor of Gaussian, Inc.  The licensee
 of this program is prohibited from giving any competitor of
 Gaussian, Inc. access to this program.  By using this program,
 the user acknowledges that Gaussian, Inc. is engaged in the
 business of creating and licensing software in the field of
 computational chemistry and represents and warrants to the
 licensee that it is not a competitor of Gaussian, Inc. and that
 it will not use this program in any manner prohibited above.
 ---------------------------------------------------------------
  

 Cite this work as:
 Gaussian 16, Revision B.01,
 M. J. Frisch, G. W. Trucks, H. B. Schlegel, G. E. Scuseria, 
 M. A. Robb, J. R. Cheeseman, G. Scalmani, V. Barone, 
 G. A. Petersson, H. Nakatsuji, X. Li, M. Caricato, A. V. Marenich, 
 J. Bloino, B. G. Janesko, R. Gomperts, B. Mennucci, H. P. Hratchian, 
 J. V. Ortiz, A. F. Izmaylov, J. L. Sonnenberg, D. Williams-Young, 
 F. Ding, F. Lipparini, F. Egidi, J. Goings, B. Peng, A. Petrone, 
 T. Henderson, D. Ranasinghe, V. G. Zakrzewski, J. Gao, N. Rega, 
 G. Zheng, W. Liang, M. Hada, M. Ehara, K. Toyota, R. Fukuda, 
 J. Hasegawa, M. Ishida, T. Nakajima, Y. Honda, O. Kitao, H. Nakai, 
 T. Vreven, K. Throssell, J. A. Montgomery, Jr., J. E. Peralta, 
 F. Ogliaro, M. J. Bearpark, J. J. Heyd, E. N. Brothers, K. N. Kudin, 
 V. N. Staroverov, T. A. Keith, R. Kobayashi, J. Normand, 
 K. Raghavachari, A. P. Rendell, J. C. Burant, S. S. Iyengar, 
 J. Tomasi, M. Cossi, J. M. Millam, M. Klene, C. Adamo, R. Cammi, 
 J. W. Ochterski, R. L. Martin, K. Morokuma, O. Farkas, 
 J. B. Foresman, and D. J. Fox, Gaussian, Inc., Wallingford CT, 2016.
 
 ******************************************
 Gaussian 16:  ES64L-G16RevB.01 20-Dec-2017
                28-Aug-2023 
 ******************************************
 %NProcShared=16
 Will use up to   16 processors via shared memory.
 %mem=12GB
 %Chk=checkpoint.chk
 -------------------------
 #p B3LYP/6-311+g(d) force
 -------------------------
 1/10=7,30=1,38=1/1,3;
 2/12=2,17=6,18=5,40=1/2;
 3/5=4,6=6,7=11,11=2,25=1,30=1,71=1,74=-5/1,2,3;
 4//1;
 5/5=2,38=5/2;
 6/7=2,8=2,9=2,10=2,28=1/1;
 7/29=1/1,2,3,16;
 1/10=7,30=1/3;
 99//99;
 Leave Link    1 at Mon Aug 28 10:18:12 2023, MaxMem=  1610612736 cpu:               0.2 elap:               0.0
 (Enter /home/sekinelabo/g16/l101.exe)


 Symbolic Z-matrix:
 Charge =  0 Multiplicity = 1
 Na                    0.        0.        0. 
 Na                   -2.14222   0.        0.93762 
 Na                    0.        0.        5.68822 
 Na                    2.69887  -1.00547   9.97814 
 
 ITRead=  0  0  0  0
 MicOpt= -1 -1 -1 -1
 NAtoms=      4 NQM=        4 NQMF=       0 NMMI=      0 NMMIF=      0
                NMic=       0 NMicF=      0.
                    Isotopes and Nuclear Properties:
 (Nuclear quadrupole moments (NQMom) in fm**2, nuclear magnetic moments (NMagM)
  in nuclear magnetons)

  Atom         1           2           3           4
 IAtWgt=          23          23          23          23
 AtmWgt=  22.9897697  22.9897697  22.9897697  22.9897697
 NucSpn=           3           3           3           3
 AtZEff=  -0.0000000  -0.0000000  -0.0000000  -0.0000000
 NQMom=   10.4000000  10.4000000  10.4000000  10.4000000
 NMagM=    2.2175200   2.2175200   2.2175200   2.2175200
 AtZNuc=  11.0000000  11.0000000  11.0000000  11.0000000
 Leave Link  101 at Mon Aug 28 10:18:12 2023, MaxMem=  1610612736 cpu:               1.8 elap:               0.1
 (Enter /home/sekinelabo/g16/l103.exe)

 GradGradGradGradGradGradGradGradGradGradGradGradGradGradGradGradGradGrad
 Berny optimization.
 Initialization pass.
 Trust Radius=3.00D-01 FncErr=1.00D-07 GrdErr=1.00D-07 EigMax=2.50D+02 EigMin=1.00D-04
 Number of steps in this run=      2 maximum allowed number of steps=      2.
 GradGradGradGradGradGradGradGradGradGradGradGradGradGradGradGradGradGrad

 Leave Link  103 at Mon Aug 28 10:18:12 2023, MaxMem=  1610612736 cpu:               0.2 elap:               0.0
 (Enter /home/sekinelabo/g16/l202.exe)
                          Input orientation:                          
 ---------------------------------------------------------------------
 Center     Atomic      Atomic             Coordinates (Angstroms)
 Number     Number       Type             X           Y           Z
 ---------------------------------------------------------------------
      1         11           0        0.000000    0.000000    0.000000
      2         11           0       -2.142217    0.000000    0.937622
      3         11           0        0.000000    0.000000    5.688222
      4         11           0        2.698874   -1.005473    9.978144
 ---------------------------------------------------------------------
                    Distance matrix (angstroms):
                    1          2          3          4
     1  Na   0.000000
     2  Na   2.338424   0.000000
     3  Na   5.688222   5.211266   0.000000
     4  Na  10.385483  10.304279   5.167042   0.000000
 Stoichiometry    Na4
 Framework group  C1[X(Na4)]
 Deg. of freedom     6
 Full point group                 C1      NOp   1
 Largest Abelian subgroup         C1      NOp   1
 Largest concise Abelian subgroup C1      NOp   1
                         Standard orientation:                         
 ---------------------------------------------------------------------
 Center     Atomic      Atomic             Coordinates (Angstroms)
 Number     Number       Type             X           Y           Z
 ---------------------------------------------------------------------
      1         11           0       -3.943448    1.326613    0.051430
      2         11           0       -3.816339   -0.994993   -0.198005
      3         11           0        1.363414   -0.706416    0.296128
      4         11           0        6.396373    0.374796   -0.149552
 ---------------------------------------------------------------------
 Rotational constants (GHZ):           6.2075157           0.3009706           0.2881962
 Leave Link  202 at Mon Aug 28 10:18:12 2023, MaxMem=  1610612736 cpu:               0.0 elap:               0.0
 (Enter /home/sekinelabo/g16/l301.exe)
 Standard basis: 6-311+G(d) (5D, 7F)
 Ernie: Thresh=  0.10000D-02 Tol=  0.10000D-05 Strict=F.
 There are   124 symmetry adapted cartesian basis functions of A   symmetry.
 There are   120 symmetry adapted basis functions of A   symmetry.
   120 basis functions,   200 primitive gaussians,   124 cartesian basis functions
    22 alpha electrons       22 beta electrons
       nuclear repulsion energy        75.6969095170 Hartrees.
 IExCor=  402 DFT=T Ex+Corr=B3LYP ExCW=0 ScaHFX=  0.200000
 ScaDFX=  0.800000  0.720000  1.000000  0.810000 ScalE2=  1.000000  1.000000
 IRadAn=      5 IRanWt=     -1 IRanGd=            0 ICorTp=0 IEmpDi=  4
 NAtoms=    4 NActive=    4 NUniq=    4 SFac= 1.00D+00 NAtFMM=   60 NAOKFM=F Big=F
 Integral buffers will be    131072 words long.
 Raffenetti 2 integral format.
 Two-electron integral symmetry is turned on.
 Leave Link  301 at Mon Aug 28 10:18:12 2023, MaxMem=  1610612736 cpu:               0.4 elap:               0.0
 (Enter /home/sekinelabo/g16/l302.exe)
 NPDir=0 NMtPBC=     1 NCelOv=     1 NCel=       1 NClECP=     1 NCelD=      1
         NCelK=      1 NCelE2=     1 NClLst=     1 CellRange=     0.0.
 One-electron integrals computed using PRISM.
 One-electron integral symmetry used in STVInt
 NBasis=   120 RedAO= T EigKep=  2.48D-05  NBF=   120
 NBsUse=   120 1.00D-06 EigRej= -1.00D+00 NBFU=   120
 Precomputing XC quadrature grid using
 IXCGrd= 4 IRadAn=           5 IRanWt=          -1 IRanGd=           0 AccXCQ= 0.00D+00.
 Generated NRdTot=       0 NPtTot=           0 NUsed=           0 NTot=          32
 NSgBfM=   114   114   114   114   114 MxSgAt=     4 MxSgA2=     4.
 Leave Link  302 at Mon Aug 28 10:18:12 2023, MaxMem=  1610612736 cpu:               1.4 elap:               0.1
 (Enter /home/sekinelabo/g16/l303.exe)
 DipDrv:  MaxL=1.
 Leave Link  303 at Mon Aug 28 10:18:12 2023, MaxMem=  1610612736 cpu:               0.3 elap:               0.0
 (Enter /home/sekinelabo/g16/l401.exe)
 ExpMin= 7.60D-03 ExpMax= 3.62D+04 ExpMxC= 1.21D+03 IAcc=3 IRadAn=         5 AccDes= 0.00D+00
 Harris functional with IExCor=  402 and IRadAn=       5 diagonalized for initial guess.
 HarFok:  IExCor=  402 AccDes= 0.00D+00 IRadAn=         5 IDoV= 1 UseB2=F ITyADJ=14
 ICtDFT=  3500011 ScaDFX=  1.000000  1.000000  1.000000  1.000000
 FoFCou: FMM=F IPFlag=           0 FMFlag=      100000 FMFlg1=           0
         NFxFlg=           0 DoJE=T BraDBF=F KetDBF=T FulRan=T
         wScrn=  0.000000 ICntrl=       500 IOpCl=  0 I1Cent=   200000004 NGrid=           0
         NMat0=    1 NMatS0=      1 NMatT0=    0 NMatD0=    1 NMtDS0=    0 NMtDT0=    0
 Petite list used in FoFCou.
 Harris En= -649.033039990218    
 JPrj=0 DoOrth=F DoCkMO=F.
 Leave Link  401 at Mon Aug 28 10:18:12 2023, MaxMem=  1610612736 cpu:               1.9 elap:               0.1
 (Enter /home/sekinelabo/g16/l502.exe)
 Keep R1 ints in memory in canonical form, NReq=41581754.
 FoFCou: FMM=F IPFlag=           0 FMFlag=           0 FMFlg1=           0
         NFxFlg=           0 DoJE=F BraDBF=F KetDBF=F FulRan=T
         wScrn=  0.000000 ICntrl=       600 IOpCl=  0 I1Cent=           0 NGrid=           0
         NMat0=    1 NMatS0=   7260 NMatT0=    0 NMatD0=    1 NMtDS0=    0 NMtDT0=    0
 Symmetry not used in FoFCou.
 Two-electron integral symmetry not used.
 Closed shell SCF:
 Using DIIS extrapolation, IDIIS=  1040.
 NGot=  1610612736 LenX=  1584221388 LenY=  1584205571
 Requested convergence on RMS density matrix=1.00D-08 within 128 cycles.
 Requested convergence on MAX density matrix=1.00D-06.
 Requested convergence on             energy=1.00D-06.
 No special actions if energy rises.

 Cycle   1  Pass 1  IDiag  1:
 E= -649.148237928890    
 DIIS: error= 1.62D-02 at cycle   1 NSaved=   1.
 NSaved= 1 IEnMin= 1 EnMin= -649.148237928890     IErMin= 1 ErrMin= 1.62D-02
 ErrMax= 1.62D-02  0.00D+00 EMaxC= 1.00D-01 BMatC= 2.67D-02 BMatP= 2.67D-02
 IDIUse=3 WtCom= 8.38D-01 WtEn= 1.62D-01
 Coeff-Com:  0.100D+01
 Coeff-En:   0.100D+01
 Coeff:      0.100D+01
 Gap=     0.035 Goal=   None    Shift=    0.000
 GapD=    0.035 DampG=0.250 DampE=0.500 DampFc=0.2500 IDamp=-1.
 Damping current iteration by 2.50D-01
 RMSDP=2.25D-03 MaxDP=5.25D-02              OVMax= 3.96D-02

 Cycle   2  Pass 1  IDiag  1:
 E= -649.152038863474     Delta-E=       -0.003800934584 Rises=F Damp=T
 DIIS: error= 1.13D-02 at cycle   2 NSaved=   2.
 NSaved= 2 IEnMin= 2 EnMin= -649.152038863474     IErMin= 2 ErrMin= 1.13D-02
 ErrMax= 1.13D-02  0.00D+00 EMaxC= 1.00D-01 BMatC= 1.03D-02 BMatP= 2.67D-02
 IDIUse=3 WtCom= 8.87D-01 WtEn= 1.13D-01
 Coeff-Com: -0.130D+01 0.230D+01
 Coeff-En:   0.000D+00 0.100D+01
 Coeff:     -0.115D+01 0.215D+01
 Gap=     0.035 Goal=   None    Shift=    0.000
 RMSDP=1.86D-03 MaxDP=4.82D-02 DE=-3.80D-03 OVMax= 2.02D-02

 Cycle   3  Pass 1  IDiag  1:
 E= -649.159978966186     Delta-E=       -0.007940102711 Rises=F Damp=F
 DIIS: error= 4.21D-04 at cycle   3 NSaved=   3.
 NSaved= 3 IEnMin= 3 EnMin= -649.159978966186     IErMin= 3 ErrMin= 4.21D-04
 ErrMax= 4.21D-04  0.00D+00 EMaxC= 1.00D-01 BMatC= 2.13D-05 BMatP= 1.03D-02
 IDIUse=3 WtCom= 9.96D-01 WtEn= 4.21D-03
 Coeff-Com:  0.777D-01-0.100D+00 0.102D+01
 Coeff-En:   0.000D+00 0.000D+00 0.100D+01
 Coeff:      0.774D-01-0.100D+00 0.102D+01
 Gap=     0.035 Goal=   None    Shift=    0.000
 RMSDP=5.33D-04 MaxDP=3.10D-02 DE=-7.94D-03 OVMax= 5.22D-02

 Cycle   4  Pass 1  IDiag  1:
 E= -649.159369474565     Delta-E=        0.000609491621 Rises=F Damp=F
 DIIS: error= 1.26D-03 at cycle   4 NSaved=   4.
 NSaved= 4 IEnMin= 3 EnMin= -649.159978966186     IErMin= 3 ErrMin= 4.21D-04
 ErrMax= 1.26D-03  0.00D+00 EMaxC= 1.00D-01 BMatC= 8.51D-05 BMatP= 2.13D-05
 IDIUse=3 WtCom= 2.20D-01 WtEn= 7.80D-01
 Coeff-Com:  0.634D-01-0.836D-01 0.792D+00 0.228D+00
 Coeff-En:   0.000D+00 0.000D+00 0.870D+00 0.130D+00
 Coeff:      0.139D-01-0.183D-01 0.853D+00 0.151D+00
 Gap=     0.035 Goal=   None    Shift=    0.000
 RMSDP=2.97D-04 MaxDP=1.88D-02 DE= 6.09D-04 OVMax= 3.28D-02

 Cycle   5  Pass 1  IDiag  1:
 E= -649.159999749809     Delta-E=       -0.000630275244 Rises=F Damp=F
 DIIS: error= 2.98D-04 at cycle   5 NSaved=   5.
 NSaved= 5 IEnMin= 5 EnMin= -649.159999749809     IErMin= 5 ErrMin= 2.98D-04
 ErrMax= 2.98D-04  0.00D+00 EMaxC= 1.00D-01 BMatC= 8.10D-06 BMatP= 2.13D-05
 IDIUse=3 WtCom= 9.97D-01 WtEn= 2.98D-03
 Coeff-Com: -0.400D-01 0.531D-01 0.112D+00-0.221D+00 0.110D+01
 Coeff-En:   0.000D+00 0.000D+00 0.414D+00 0.000D+00 0.586D+00
 Coeff:     -0.399D-01 0.529D-01 0.113D+00-0.220D+00 0.109D+01
 Gap=     0.035 Goal=   None    Shift=    0.000
 RMSDP=8.48D-05 MaxDP=4.89D-03 DE=-6.30D-04 OVMax= 8.60D-03

 Cycle   6  Pass 1  IDiag  1:
 E= -649.160034098087     Delta-E=       -0.000034348277 Rises=F Damp=F
 DIIS: error= 1.37D-05 at cycle   6 NSaved=   6.
 NSaved= 6 IEnMin= 6 EnMin= -649.160034098087     IErMin= 6 ErrMin= 1.37D-05
 ErrMax= 1.37D-05  0.00D+00 EMaxC= 1.00D-01 BMatC= 4.45D-08 BMatP= 8.10D-06
 IDIUse=1 WtCom= 1.00D+00 WtEn= 0.00D+00
 Coeff-Com: -0.162D-01 0.214D-01 0.242D-01-0.896D-01 0.391D+00 0.669D+00
 Coeff:     -0.162D-01 0.214D-01 0.242D-01-0.896D-01 0.391D+00 0.669D+00
 Gap=     0.035 Goal=   None    Shift=    0.000
 RMSDP=6.38D-06 MaxDP=3.70D-04 DE=-3.43D-05 OVMax= 5.66D-04

 Cycle   7  Pass 1  IDiag  1:
 E= -649.160034227062     Delta-E=       -0.000000128975 Rises=F Damp=F
 DIIS: error= 3.25D-06 at cycle   7 NSaved=   7.
 NSaved= 7 IEnMin= 7 EnMin= -649.160034227062     IErMin= 7 ErrMin= 3.25D-06
 ErrMax= 3.25D-06  0.00D+00 EMaxC= 1.00D-01 BMatC= 2.13D-09 BMatP= 4.45D-08
 IDIUse=1 WtCom= 1.00D+00 WtEn= 0.00D+00
 Coeff-Com: -0.132D-02 0.172D-02-0.523D-02-0.665D-02 0.146D-01 0.189D+00
 Coeff-Com:  0.808D+00
 Coeff:     -0.132D-02 0.172D-02-0.523D-02-0.665D-02 0.146D-01 0.189D+00
 Coeff:      0.808D+00
 Gap=     0.035 Goal=   None    Shift=    0.000
 RMSDP=2.53D-06 MaxDP=7.39D-05 DE=-1.29D-07 OVMax= 5.36D-05

 Cycle   8  Pass 1  IDiag  1:
 E= -649.160034229591     Delta-E=       -0.000000002529 Rises=F Damp=F
 DIIS: error= 5.56D-07 at cycle   8 NSaved=   8.
 NSaved= 8 IEnMin= 8 EnMin= -649.160034229591     IErMin= 8 ErrMin= 5.56D-07
 ErrMax= 5.56D-07  0.00D+00 EMaxC= 1.00D-01 BMatC= 6.07D-11 BMatP= 2.13D-09
 IDIUse=1 WtCom= 1.00D+00 WtEn= 0.00D+00
 Coeff-Com:  0.718D-03-0.961D-03-0.747D-03 0.334D-02-0.155D-01 0.792D-02
 Coeff-Com:  0.730D-01 0.932D+00
 Coeff:      0.718D-03-0.961D-03-0.747D-03 0.334D-02-0.155D-01 0.792D-02
 Coeff:      0.730D-01 0.932D+00
 Gap=     0.035 Goal=   None    Shift=    0.000
 RMSDP=7.05D-07 MaxDP=1.71D-05 DE=-2.53D-09 OVMax= 2.82D-05

 Cycle   9  Pass 1  IDiag  1:
 E= -649.160034229740     Delta-E=       -0.000000000149 Rises=F Damp=F
 DIIS: error= 2.85D-07 at cycle   9 NSaved=   9.
 NSaved= 9 IEnMin= 9 EnMin= -649.160034229740     IErMin= 9 ErrMin= 2.85D-07
 ErrMax= 2.85D-07  0.00D+00 EMaxC= 1.00D-01 BMatC= 1.03D-11 BMatP= 6.07D-11
 IDIUse=1 WtCom= 1.00D+00 WtEn= 0.00D+00
 Coeff-Com:  0.324D-03-0.431D-03 0.529D-04 0.135D-02-0.609D-02-0.958D-02
 Coeff-Com: -0.306D-01 0.292D+00 0.753D+00
 Coeff:      0.324D-03-0.431D-03 0.529D-04 0.135D-02-0.609D-02-0.958D-02
 Coeff:     -0.306D-01 0.292D+00 0.753D+00
 Gap=     0.035 Goal=   None    Shift=    0.000
 RMSDP=1.66D-07 MaxDP=8.27D-06 DE=-1.49D-10 OVMax= 1.34D-05

 Cycle  10  Pass 1  IDiag  1:
 E= -649.160034229804     Delta-E=       -0.000000000064 Rises=F Damp=F
 DIIS: error= 1.97D-08 at cycle  10 NSaved=  10.
 NSaved=10 IEnMin=10 EnMin= -649.160034229804     IErMin=10 ErrMin= 1.97D-08
 ErrMax= 1.97D-08  0.00D+00 EMaxC= 1.00D-01 BMatC= 6.06D-14 BMatP= 1.03D-11
 IDIUse=1 WtCom= 1.00D+00 WtEn= 0.00D+00
 Coeff-Com: -0.101D-04 0.135D-04 0.155D-04-0.201D-04 0.157D-03-0.357D-03
 Coeff-Com: -0.103D-02-0.491D-02 0.175D-01 0.989D+00
 Coeff:     -0.101D-04 0.135D-04 0.155D-04-0.201D-04 0.157D-03-0.357D-03
 Coeff:     -0.103D-02-0.491D-02 0.175D-01 0.989D+00
 Gap=     0.035 Goal=   None    Shift=    0.000
 RMSDP=1.61D-08 MaxDP=5.10D-07 DE=-6.36D-11 OVMax= 7.41D-07

 Cycle  11  Pass 1  IDiag  1:
 E= -649.160034229807     Delta-E=       -0.000000000003 Rises=F Damp=F
 DIIS: error= 2.58D-09 at cycle  11 NSaved=  11.
 NSaved=11 IEnMin=11 EnMin= -649.160034229807     IErMin=11 ErrMin= 2.58D-09
 ErrMax= 2.58D-09  0.00D+00 EMaxC= 1.00D-01 BMatC= 9.53D-16 BMatP= 6.06D-14
 IDIUse=1 WtCom= 1.00D+00 WtEn= 0.00D+00
 Coeff-Com: -0.611D-05 0.815D-05 0.295D-05-0.237D-04 0.115D-03 0.448D-04
 Coeff-Com:  0.655D-04-0.412D-02-0.653D-02 0.146D+00 0.865D+00
 Coeff:     -0.611D-05 0.815D-05 0.295D-05-0.237D-04 0.115D-03 0.448D-04
 Coeff:      0.655D-04-0.412D-02-0.653D-02 0.146D+00 0.865D+00
 Gap=     0.035 Goal=   None    Shift=    0.000
 RMSDP=2.26D-09 MaxDP=4.92D-08 DE=-3.41D-12 OVMax= 1.12D-07

 SCF Done:  E(RB3LYP) =  -649.160034230     A.U. after   11 cycles
            NFock= 11  Conv=0.23D-08     -V/T= 2.0028
 KE= 6.473681319396D+02 PE=-1.710160399464D+03 EE= 3.379353237777D+02
 Leave Link  502 at Mon Aug 28 10:18:14 2023, MaxMem=  1610612736 cpu:              15.6 elap:               1.1
 (Enter /home/sekinelabo/g16/l601.exe)
 Copying SCF densities to generalized density rwf, IOpCl= 0 IROHF=0.

 **********************************************************************

            Population analysis using the SCF Density.

 **********************************************************************

 Orbital symmetries:
       Occupied  (A) (A) (A) (A) (A) (A) (A) (A) (A) (A) (A) (A)
                 (A) (A) (A) (A) (A) (A) (A) (A) (A) (A)
       Virtual   (A) (A) (A) (A) (A) (A) (A) (A) (A) (A) (A) (A)
                 (A) (A) (A) (A) (A) (A) (A) (A) (A) (A) (A) (A)
                 (A) (A) (A) (A) (A) (A) (A) (A) (A) (A) (A) (A)
                 (A) (A) (A) (A) (A) (A) (A) (A) (A) (A) (A) (A)
                 (A) (A) (A) (A) (A) (A) (A) (A) (A) (A) (A) (A)
                 (A) (A) (A) (A) (A) (A) (A) (A) (A) (A) (A) (A)
                 (A) (A) (A) (A) (A) (A) (A) (A) (A) (A) (A) (A)
                 (A) (A) (A) (A) (A) (A) (A) (A) (A) (A) (A) (A)
                 (A) (A)
 The electronic state is 1-A.
 Alpha  occ. eigenvalues --  -38.46051 -38.45921 -38.45797 -38.45746  -2.21951
 Alpha  occ. eigenvalues --   -2.21717  -2.21637  -2.21420  -1.16607  -1.15478
 Alpha  occ. eigenvalues --   -1.15471  -1.15402  -1.15400  -1.15343  -1.15187
 Alpha  occ. eigenvalues --   -1.15178  -1.15098  -1.15098  -1.15056  -1.14816
 Alpha  occ. eigenvalues --   -0.14678  -0.11343
 Alpha virt. eigenvalues --   -0.07860  -0.05222  -0.03407  -0.03352  -0.01850
 Alpha virt. eigenvalues --   -0.01718  -0.01107  -0.00571  -0.00220  -0.00078
 Alpha virt. eigenvalues --    0.00309   0.00653   0.00786   0.00989   0.01084
 Alpha virt. eigenvalues --    0.01387   0.01444   0.01538   0.01717   0.01977
 Alpha virt. eigenvalues --    0.02104   0.02386   0.02403   0.02653   0.02877
 Alpha virt. eigenvalues --    0.03013   0.03115   0.03527   0.03871   0.04907
 Alpha virt. eigenvalues --    0.06453   0.06761   0.07748   0.08164   0.08222
 Alpha virt. eigenvalues --    0.08257   0.08735   0.08906   0.08933   0.09602
 Alpha virt. eigenvalues --    0.09875   0.10212   0.11030   0.11413   0.12153
 Alpha virt. eigenvalues --    0.16626   0.29361   0.29501   0.29822   0.30218
 Alpha virt. eigenvalues --    0.33335   0.34521   0.34553   0.34679   0.34770
 Alpha virt. eigenvalues --    0.34785   0.34823   0.35077   0.35415   0.35597
 Alpha virt. eigenvalues --    0.36999   0.39919   0.39962   0.41547   0.41655
 Alpha virt. eigenvalues --    0.41914   0.42633   0.43111   0.43185   0.43843
 Alpha virt. eigenvalues --    0.44042   0.44772   0.46289   0.48060   0.49146
 Alpha virt. eigenvalues --    0.58206   0.58309   0.88424   2.00772   2.02023
 Alpha virt. eigenvalues --    2.02903   2.11931   4.41593   4.42204   4.42748
 Alpha virt. eigenvalues --    4.42901   4.43665   4.43756   4.44254   4.45672
 Alpha virt. eigenvalues --    4.47378   4.47859   4.52458   4.77167  96.19812
 Alpha virt. eigenvalues --   96.21186  96.23513  96.33996
          Condensed to atoms (all electrons):
               1          2          3          4
     1  Na  10.681769   0.394560  -0.082198  -0.017592
     2  Na   0.394560  10.579947   0.011530  -0.008753
     3  Na  -0.082198   0.011530  10.906626   0.173962
     4  Na  -0.017592  -0.008753   0.173962  10.888640
 Mulliken charges:
               1
     1  Na   0.023462
     2  Na   0.022716
     3  Na  -0.009920
     4  Na  -0.036257
 Sum of Mulliken charges =  -0.00000
 Mulliken charges with hydrogens summed into heavy atoms:
               1
     1  Na   0.023462
     2  Na   0.022716
     3  Na  -0.009920
     4  Na  -0.036257
 Electronic spatial extent (au):  <R**2>=           3089.6917
 Charge=             -0.0000 electrons
 Dipole moment (field-independent basis, Debye):
    X=             -1.4921    Y=              0.1906    Z=             -0.0222  Tot=              1.5044
 Quadrupole moment (field-independent basis, Debye-Ang):
   XX=            -34.7600   YY=            -37.0908   ZZ=            -45.7433
   XY=              1.6345   XZ=             -0.8764   YZ=              0.6655
 Traceless Quadrupole moment (field-independent basis, Debye-Ang):
   XX=              4.4380   YY=              2.1073   ZZ=             -6.5453
   XY=              1.6345   XZ=             -0.8764   YZ=              0.6655
 Octapole moment (field-independent basis, Debye-Ang**2):
  XXX=             68.2468  YYY=              5.7075  ZZZ=             -0.4320  XYY=            -42.7980
  XXY=             22.0379  XXZ=             -7.5864  XZZ=            -11.4756  YZZ=              0.3659
  YYZ=             -0.3589  XYZ=             -4.0111
 Hexadecapole moment (field-independent basis, Debye-Ang**3):
 XXXX=          -4064.8022 YYYY=           -332.2554 ZZZZ=           -211.4611 XXXY=             93.6428
 XXXZ=            -48.5738 YYYX=            -10.4471 YYYZ=              4.3747 ZZZX=             -3.7245
 ZZZY=              3.4006 XXYY=           -784.6397 XXZZ=           -893.4607 YYZZ=            -92.7472
 XXYZ=             12.2119 YYXZ=             -0.0906 ZZXY=              2.6895
 N-N= 7.569690951705D+01 E-N=-1.710160399629D+03  KE= 6.473681319396D+02
 No NMR shielding tensors so no spin-rotation constants.
 Leave Link  601 at Mon Aug 28 10:18:14 2023, MaxMem=  1610612736 cpu:               0.9 elap:               0.1
 (Enter /home/sekinelabo/g16/l701.exe)
 ... and contract with generalized density number  0.
 Compute integral first derivatives.
 Leave Link  701 at Mon Aug 28 10:18:14 2023, MaxMem=  1610612736 cpu:               1.2 elap:               0.1
 (Enter /home/sekinelabo/g16/l702.exe)
 L702 exits ... SP integral derivatives will be done elsewhere.
 Leave Link  702 at Mon Aug 28 10:18:14 2023, MaxMem=  1610612736 cpu:               0.4 elap:               0.0
 (Enter /home/sekinelabo/g16/l703.exe)
 Integral derivatives from FoFJK, PRISM(SPDF).
 Compute integral first derivatives, UseDBF=F ICtDFT=           0.
 Calling FoFJK, ICntrl=      2127 FMM=F ISym2X=0 I1Cent= 0 IOpClX= 0 NMat=1 NMatS=1 NMatT=0.
 FoFJK:  IHMeth= 1 ICntrl=    2127 DoSepK=F KAlg= 0 I1Cent=           0 FoldK=F
 IRaf=         0 NMat=       1 IRICut=       1 DoRegI=T DoRafI=F ISym2E= 0 IDoP0=0 IntGTp=1.
 FoFCou: FMM=F IPFlag=           0 FMFlag=      100000 FMFlg1=         800
         NFxFlg=           0 DoJE=F BraDBF=F KetDBF=F FulRan=T
         wScrn=  0.000000 ICntrl=      2127 IOpCl=  0 I1Cent=           0 NGrid=           0
         NMat0=    1 NMatS0=      1 NMatT0=    0 NMatD0=    1 NMtDS0=    0 NMtDT0=    0
 Symmetry not used in FoFCou.
 Leave Link  703 at Mon Aug 28 10:18:14 2023, MaxMem=  1610612736 cpu:               6.0 elap:               0.4
 (Enter /home/sekinelabo/g16/l716.exe)
 Dipole        =-5.87026491D-01 7.49848738D-02-8.72298943D-03
 ***** Axes restored to original set *****
 -------------------------------------------------------------------
 Center     Atomic                   Forces (Hartrees/Bohr)
 Number     Number              X              Y              Z
 -------------------------------------------------------------------
      1       11           0.026569594    0.000008011   -0.011057615
      2       11          -0.026296033    0.000006363    0.012307102
      3       11           0.003056275   -0.001259533    0.003987065
      4       11          -0.003329836    0.001245159   -0.005236551
 -------------------------------------------------------------------
 Cartesian Forces:  Max     0.026569594 RMS     0.012034825
 Z-matrix is all fixed cartesians, so copy forces.
 Force constants in Cartesian coordinates: 
                1             2             3             4             5 
      1  0.111991D+00
      2  0.000000D+00  0.000000D+00
      3 -0.490170D-01  0.000000D+00  0.214541D-01
      4 -0.111991D+00  0.000000D+00  0.490170D-01  0.111991D+00
      5  0.000000D+00  0.000000D+00  0.000000D+00  0.000000D+00  0.000000D+00
      6  0.490170D-01  0.000000D+00 -0.214541D-01 -0.490170D-01  0.000000D+00
      7  0.000000D+00  0.000000D+00  0.000000D+00  0.000000D+00  0.000000D+00
      8  0.000000D+00  0.000000D+00  0.000000D+00  0.000000D+00  0.000000D+00
      9  0.000000D+00  0.000000D+00  0.000000D+00  0.000000D+00  0.000000D+00
     10  0.000000D+00  0.000000D+00  0.000000D+00  0.000000D+00  0.000000D+00
     11  0.000000D+00  0.000000D+00  0.000000D+00  0.000000D+00  0.000000D+00
     12  0.000000D+00  0.000000D+00  0.000000D+00  0.000000D+00  0.000000D+00
                6             7             8             9            10 
      6  0.214541D-01
      7  0.000000D+00  0.100000D+01
      8  0.000000D+00  0.000000D+00  0.100000D+01
      9  0.000000D+00  0.000000D+00  0.000000D+00  0.100000D+01
     10  0.000000D+00  0.000000D+00  0.000000D+00  0.000000D+00  0.100000D+01
     11  0.000000D+00  0.000000D+00  0.000000D+00  0.000000D+00  0.000000D+00
     12  0.000000D+00  0.000000D+00  0.000000D+00  0.000000D+00  0.000000D+00
               11            12 
     11  0.100000D+01
     12  0.000000D+00  0.100000D+01
 Leave Link  716 at Mon Aug 28 10:18:14 2023, MaxMem=  1610612736 cpu:               0.3 elap:               0.0
 (Enter /home/sekinelabo/g16/l103.exe)

 GradGradGradGradGradGradGradGradGradGradGradGradGradGradGradGradGradGrad
 Berny optimization.
 Search for a local minimum.
 Step number   1 out of a maximum of    2
 All quantities printed in internal units (Hartrees-Bohrs-Radians)
 Second derivative matrix not updated -- first step.
 The second derivative matrix:
                          X1        Y1        Z1        X2        Y2
           X1           0.11199
           Y1           0.00000  -0.00000
           Z1          -0.04902  -0.00000   0.02145
           X2          -0.11199  -0.00000   0.04902   0.11199
           Y2          -0.00000   0.00000   0.00000   0.00000  -0.00000
           Z2           0.04902   0.00000  -0.02145  -0.04902  -0.00000
           X3           0.00000   0.00000   0.00000   0.00000   0.00000
           Y3           0.00000   0.00000   0.00000   0.00000   0.00000
           Z3           0.00000   0.00000   0.00000   0.00000   0.00000
           X4           0.00000   0.00000   0.00000   0.00000   0.00000
           Y4           0.00000   0.00000   0.00000   0.00000   0.00000
           Z4           0.00000   0.00000   0.00000   0.00000   0.00000
                          Z2        X3        Y3        Z3        X4
           Z2           0.02145
           X3           0.00000   1.00000
           Y3           0.00000   0.00000   1.00000
           Z3           0.00000  -0.00000   0.00000   1.00000
           X4           0.00000   0.00000   0.00000   0.00000   1.00000
           Y4           0.00000   0.00000   0.00000   0.00000   0.00000
           Z4           0.00000   0.00000   0.00000   0.00000  -0.00000
                          Y4        Z4
           Y4           1.00000
           Z4           0.00000   1.00000
 ITU=  0
     Eigenvalues ---    0.01966   0.26689   0.50000   0.70185   0.91058
     Eigenvalues ---    1.00000
 Angle between quadratic step and forces=   8.57 degrees.
 Linear search not attempted -- first point.
 B after Tr=     0.000000   -0.000000    0.000000
         Rot=    1.000000    0.000000   -0.000000    0.000000 Ang=   0.00 deg.
 Variable       Old X    -DE/DX   Delta X   Delta X   Delta X     New X
                                 (Linear)    (Quad)   (Total)
    X1        0.00000   0.02657   0.00000   0.09823   0.09823   0.09823
    Y1       -0.00000   0.00001   0.00000   0.00033   0.00033   0.00033
    Z1        0.00000  -0.01106   0.00000  -0.04670  -0.04670  -0.04670
    X2       -4.04820  -0.02630   0.00000  -0.09638  -0.09638  -4.14458
    Y2       -0.00000   0.00001   0.00000  -0.00039  -0.00039  -0.00039
    Z2        1.77185   0.01231   0.00000   0.04877   0.04877   1.82061
    X3        0.00000   0.00306   0.00000   0.00246   0.00246   0.00246
    Y3       -0.00000  -0.00126   0.00000  -0.00124  -0.00124  -0.00124
    Z3       10.74918   0.00399   0.00000   0.00346   0.00346  10.75264
    X4        5.10013  -0.00333   0.00000  -0.00431  -0.00431   5.09583
    Y4       -1.90007   0.00125   0.00000   0.00130   0.00130  -1.89877
    Z4       18.85596  -0.00524   0.00000  -0.00552  -0.00552  18.85044
         Item               Value     Threshold  Converged?
 Maximum Force            0.026570     0.000450     NO 
 RMS     Force            0.012035     0.000300     NO 
 Maximum Displacement     0.098231     0.001800     NO 
 RMS     Displacement     0.044317     0.001200     NO 
 Predicted change in Energy=-3.164356D-03
 GradGradGradGradGradGradGradGradGradGradGradGradGradGradGradGradGradGrad

 Leave Link  103 at Mon Aug 28 10:18:14 2023, MaxMem=  1610612736 cpu:               0.1 elap:               0.0
 (Enter /home/sekinelabo/g16/l9999.exe)
 1\1\GINC-SEKINELABO-XA7R-R37\Force\RB3LYP\6-311+G(d)\Na4\SEKINELABO\28
 -Aug-2023\0\\#p B3LYP/6-311+g(d) force\\\0,1\Na,0.,0.,0.\Na,-2.1422165
 876,0.,0.9376219898\Na,0.,0.,5.6882223215\Na,2.6988737524,-1.005473400
 9,9.9781437479\\Version=ES64L-G16RevB.01\State=1-A\HF=-649.1600342\RMS
 D=2.258e-09\RMSF=1.203e-02\Dipole=-0.1365232,0.0348256,-0.5748456\Quad
 rupole=2.5092296,-4.6943984,2.1851688,-0.8318735,1.3303207,-1.2810015\
 PG=C01 [X(Na4)]\\@


 WE ARE REACHING THE STAGE WHERE THE PROBLEMS WE MUST SOLVE ARE 
 GOING TO BECOME INSOLUBLE WITHOUT COMPUTERS.
 I DO NOT FEAR COMPUTERS.  I FEAR THE LACK OF THEM.

                                   -- ISSAC ASIMOV
 Job cpu time:       0 days  0 hours  0 minutes 31.0 seconds.
 Elapsed time:       0 days  0 hours  0 minutes  2.1 seconds.
 File lengths (MBytes):  RWF=     10 Int=      0 D2E=      0 Chk=      2 Scr=      1
 Normal termination of Gaussian 16 at Mon Aug 28 10:18:14 2023.
