 Initial command:
 /home/sekinelabo/g16/l1.exe "/home/sekinelabo/g16temp/Gau-20140.inp" -scrdir="/home/sekinelabo/g16temp/"
 Entering Link 1 = /home/sekinelabo/g16/l1.exe PID=     20868.
  
 Copyright (c) 1988-2017, Gaussian, Inc.  All Rights Reserved.
  
 This is part of the Gaussian(R) 16 program.  It is based on
 the Gaussian(R) 09 system (copyright 2009, Gaussian, Inc.),
 the Gaussian(R) 03 system (copyright 2003, Gaussian, Inc.),
 the Gaussian(R) 98 system (copyright 1998, Gaussian, Inc.),
 the Gaussian(R) 94 system (copyright 1995, Gaussian, Inc.),
 the Gaussian 92(TM) system (copyright 1992, Gaussian, Inc.),
 the Gaussian 90(TM) system (copyright 1990, Gaussian, Inc.),
 the Gaussian 88(TM) system (copyright 1988, Gaussian, Inc.),
 the Gaussian 86(TM) system (copyright 1986, Carnegie Mellon
 University), and the Gaussian 82(TM) system (copyright 1983,
 Carnegie Mellon University). Gaussian is a federally registered
 trademark of Gaussian, Inc.
  
 This software contains proprietary and confidential information,
 including trade secrets, belonging to Gaussian, Inc.
  
 This software is provided under written license and may be
 used, copied, transmitted, or stored only in accord with that
 written license.
  
 The following legend is applicable only to US Government
 contracts under FAR:
  
                    RESTRICTED RIGHTS LEGEND
  
 Use, reproduction and disclosure by the US Government is
 subject to restrictions as set forth in subparagraphs (a)
 and (c) of the Commercial Computer Software - Restricted
 Rights clause in FAR 52.227-19.
  
 Gaussian, Inc.
 340 Quinnipiac St., Bldg. 40, Wallingford CT 06492
  
  
 ---------------------------------------------------------------
 Warning -- This program may not be used in any manner that
 competes with the business of Gaussian, Inc. or will provide
 assistance to any competitor of Gaussian, Inc.  The licensee
 of this program is prohibited from giving any competitor of
 Gaussian, Inc. access to this program.  By using this program,
 the user acknowledges that Gaussian, Inc. is engaged in the
 business of creating and licensing software in the field of
 computational chemistry and represents and warrants to the
 licensee that it is not a competitor of Gaussian, Inc. and that
 it will not use this program in any manner prohibited above.
 ---------------------------------------------------------------
  

 Cite this work as:
 Gaussian 16, Revision B.01,
 M. J. Frisch, G. W. Trucks, H. B. Schlegel, G. E. Scuseria, 
 M. A. Robb, J. R. Cheeseman, G. Scalmani, V. Barone, 
 G. A. Petersson, H. Nakatsuji, X. Li, M. Caricato, A. V. Marenich, 
 J. Bloino, B. G. Janesko, R. Gomperts, B. Mennucci, H. P. Hratchian, 
 J. V. Ortiz, A. F. Izmaylov, J. L. Sonnenberg, D. Williams-Young, 
 F. Ding, F. Lipparini, F. Egidi, J. Goings, B. Peng, A. Petrone, 
 T. Henderson, D. Ranasinghe, V. G. Zakrzewski, J. Gao, N. Rega, 
 G. Zheng, W. Liang, M. Hada, M. Ehara, K. Toyota, R. Fukuda, 
 J. Hasegawa, M. Ishida, T. Nakajima, Y. Honda, O. Kitao, H. Nakai, 
 T. Vreven, K. Throssell, J. A. Montgomery, Jr., J. E. Peralta, 
 F. Ogliaro, M. J. Bearpark, J. J. Heyd, E. N. Brothers, K. N. Kudin, 
 V. N. Staroverov, T. A. Keith, R. Kobayashi, J. Normand, 
 K. Raghavachari, A. P. Rendell, J. C. Burant, S. S. Iyengar, 
 J. Tomasi, M. Cossi, J. M. Millam, M. Klene, C. Adamo, R. Cammi, 
 J. W. Ochterski, R. L. Martin, K. Morokuma, O. Farkas, 
 J. B. Foresman, and D. J. Fox, Gaussian, Inc., Wallingford CT, 2016.
 
 ******************************************
 Gaussian 16:  ES64L-G16RevB.01 20-Dec-2017
                23-Aug-2023 
 ******************************************
 %NProcShared=16
 Will use up to   16 processors via shared memory.
 %mem=12GB
 %Chk=checkpoint.chk
 -------------------------
 #p B3LYP/6-311+g(d) force
 -------------------------
 1/10=7,30=1,38=1/1,3;
 2/12=2,17=6,18=5,40=1/2;
 3/5=4,6=6,7=11,11=2,25=1,30=1,71=1,74=-5/1,2,3;
 4//1;
 5/5=2,38=5/2;
 6/7=2,8=2,9=2,10=2,28=1/1;
 7/29=1/1,2,3,16;
 1/10=7,30=1/3;
 99//99;
 Leave Link    1 at Wed Aug 23 10:07:46 2023, MaxMem=  1610612736 cpu:               0.2 elap:               0.0
 (Enter /home/sekinelabo/g16/l101.exe)


 Symbolic Z-matrix:
 Charge =  0 Multiplicity = 1
 Na                    0.        0.        0. 
 Na                   -0.78095   0.        3.03143 
 Na                    0.        0.        5.53774 
 Na                    2.58896  -2.22974   7.39102 
 
 ITRead=  0  0  0  0
 MicOpt= -1 -1 -1 -1
 NAtoms=      4 NQM=        4 NQMF=       0 NMMI=      0 NMMIF=      0
                NMic=       0 NMicF=      0.
                    Isotopes and Nuclear Properties:
 (Nuclear quadrupole moments (NQMom) in fm**2, nuclear magnetic moments (NMagM)
  in nuclear magnetons)

  Atom         1           2           3           4
 IAtWgt=          23          23          23          23
 AtmWgt=  22.9897697  22.9897697  22.9897697  22.9897697
 NucSpn=           3           3           3           3
 AtZEff=  -0.0000000  -0.0000000  -0.0000000  -0.0000000
 NQMom=   10.4000000  10.4000000  10.4000000  10.4000000
 NMagM=    2.2175200   2.2175200   2.2175200   2.2175200
 AtZNuc=  11.0000000  11.0000000  11.0000000  11.0000000
 Leave Link  101 at Wed Aug 23 10:07:46 2023, MaxMem=  1610612736 cpu:               1.6 elap:               0.1
 (Enter /home/sekinelabo/g16/l103.exe)

 GradGradGradGradGradGradGradGradGradGradGradGradGradGradGradGradGradGrad
 Berny optimization.
 Initialization pass.
 Trust Radius=3.00D-01 FncErr=1.00D-07 GrdErr=1.00D-07 EigMax=2.50D+02 EigMin=1.00D-04
 Number of steps in this run=      2 maximum allowed number of steps=      2.
 GradGradGradGradGradGradGradGradGradGradGradGradGradGradGradGradGradGrad

 Leave Link  103 at Wed Aug 23 10:07:46 2023, MaxMem=  1610612736 cpu:               0.1 elap:               0.0
 (Enter /home/sekinelabo/g16/l202.exe)
                          Input orientation:                          
 ---------------------------------------------------------------------
 Center     Atomic      Atomic             Coordinates (Angstroms)
 Number     Number       Type             X           Y           Z
 ---------------------------------------------------------------------
      1         11           0        0.000000    0.000000    0.000000
      2         11           0       -0.780951    0.000000    3.031434
      3         11           0        0.000000    0.000000    5.537738
      4         11           0        2.588958   -2.229743    7.391023
 ---------------------------------------------------------------------
                    Distance matrix (angstroms):
                    1          2          3          4
     1  Na   0.000000
     2  Na   3.130411   0.000000
     3  Na   5.537738   2.625156   0.000000
     4  Na   8.142584   5.944246   3.887046   0.000000
 Stoichiometry    Na4
 Framework group  C1[X(Na4)]
 Deg. of freedom     6
 Full point group                 C1      NOp   1
 Largest Abelian subgroup         C1      NOp   1
 Largest concise Abelian subgroup C1      NOp   1
                         Standard orientation:                         
 ---------------------------------------------------------------------
 Center     Atomic      Atomic             Coordinates (Angstroms)
 Number     Number       Type             X           Y           Z
 ---------------------------------------------------------------------
      1         11           0       -3.915089   -1.046777   -0.108926
      2         11           0       -1.421921    0.805733    0.280683
      3         11           0        1.111125    1.274949   -0.224249
      4         11           0        4.225885   -1.033905    0.052491
 ---------------------------------------------------------------------
 Rotational constants (GHZ):           4.7964915           0.6008493           0.5377143
 Leave Link  202 at Wed Aug 23 10:07:46 2023, MaxMem=  1610612736 cpu:               0.0 elap:               0.0
 (Enter /home/sekinelabo/g16/l301.exe)
 Standard basis: 6-311+G(d) (5D, 7F)
 Ernie: Thresh=  0.10000D-02 Tol=  0.10000D-05 Strict=F.
 There are   124 symmetry adapted cartesian basis functions of A   symmetry.
 There are   120 symmetry adapted basis functions of A   symmetry.
   120 basis functions,   200 primitive gaussians,   124 cartesian basis functions
    22 alpha electrons       22 beta electrons
       nuclear repulsion energy        91.5162514210 Hartrees.
 IExCor=  402 DFT=T Ex+Corr=B3LYP ExCW=0 ScaHFX=  0.200000
 ScaDFX=  0.800000  0.720000  1.000000  0.810000 ScalE2=  1.000000  1.000000
 IRadAn=      5 IRanWt=     -1 IRanGd=            0 ICorTp=0 IEmpDi=  4
 NAtoms=    4 NActive=    4 NUniq=    4 SFac= 1.00D+00 NAtFMM=   60 NAOKFM=F Big=F
 Integral buffers will be    131072 words long.
 Raffenetti 2 integral format.
 Two-electron integral symmetry is turned on.
 Leave Link  301 at Wed Aug 23 10:07:46 2023, MaxMem=  1610612736 cpu:               0.3 elap:               0.0
 (Enter /home/sekinelabo/g16/l302.exe)
 NPDir=0 NMtPBC=     1 NCelOv=     1 NCel=       1 NClECP=     1 NCelD=      1
         NCelK=      1 NCelE2=     1 NClLst=     1 CellRange=     0.0.
 One-electron integrals computed using PRISM.
 One-electron integral symmetry used in STVInt
 NBasis=   120 RedAO= T EigKep=  7.99D-06  NBF=   120
 NBsUse=   120 1.00D-06 EigRej= -1.00D+00 NBFU=   120
 Precomputing XC quadrature grid using
 IXCGrd= 4 IRadAn=           5 IRanWt=          -1 IRanGd=           0 AccXCQ= 0.00D+00.
 Generated NRdTot=       0 NPtTot=           0 NUsed=           0 NTot=          32
 NSgBfM=   116   116   116   116   116 MxSgAt=     4 MxSgA2=     4.
 Leave Link  302 at Wed Aug 23 10:07:46 2023, MaxMem=  1610612736 cpu:               1.3 elap:               0.1
 (Enter /home/sekinelabo/g16/l303.exe)
 DipDrv:  MaxL=1.
 Leave Link  303 at Wed Aug 23 10:07:46 2023, MaxMem=  1610612736 cpu:               0.3 elap:               0.0
 (Enter /home/sekinelabo/g16/l401.exe)
 ExpMin= 7.60D-03 ExpMax= 3.62D+04 ExpMxC= 1.21D+03 IAcc=3 IRadAn=         5 AccDes= 0.00D+00
 Harris functional with IExCor=  402 and IRadAn=       5 diagonalized for initial guess.
 HarFok:  IExCor=  402 AccDes= 0.00D+00 IRadAn=         5 IDoV= 1 UseB2=F ITyADJ=14
 ICtDFT=  3500011 ScaDFX=  1.000000  1.000000  1.000000  1.000000
 FoFCou: FMM=F IPFlag=           0 FMFlag=      100000 FMFlg1=           0
         NFxFlg=           0 DoJE=T BraDBF=F KetDBF=T FulRan=T
         wScrn=  0.000000 ICntrl=       500 IOpCl=  0 I1Cent=   200000004 NGrid=           0
         NMat0=    1 NMatS0=      1 NMatT0=    0 NMatD0=    1 NMtDS0=    0 NMtDT0=    0
 Petite list used in FoFCou.
 Harris En= -649.059373920872    
 JPrj=0 DoOrth=F DoCkMO=F.
 Leave Link  401 at Wed Aug 23 10:07:46 2023, MaxMem=  1610612736 cpu:               2.0 elap:               0.1
 (Enter /home/sekinelabo/g16/l502.exe)
 Keep R1 ints in memory in canonical form, NReq=41581762.
 FoFCou: FMM=F IPFlag=           0 FMFlag=           0 FMFlg1=           0
         NFxFlg=           0 DoJE=F BraDBF=F KetDBF=F FulRan=T
         wScrn=  0.000000 ICntrl=       600 IOpCl=  0 I1Cent=           0 NGrid=           0
         NMat0=    1 NMatS0=   7260 NMatT0=    0 NMatD0=    1 NMtDS0=    0 NMtDT0=    0
 Symmetry not used in FoFCou.
 Two-electron integral symmetry not used.
 Closed shell SCF:
 Using DIIS extrapolation, IDIIS=  1040.
 NGot=  1610612736 LenX=  1584221380 LenY=  1584205563
 Requested convergence on RMS density matrix=1.00D-08 within 128 cycles.
 Requested convergence on MAX density matrix=1.00D-06.
 Requested convergence on             energy=1.00D-06.
 No special actions if energy rises.

 Cycle   1  Pass 1  IDiag  1:
 E= -649.171573482190    
 DIIS: error= 1.33D-02 at cycle   1 NSaved=   1.
 NSaved= 1 IEnMin= 1 EnMin= -649.171573482190     IErMin= 1 ErrMin= 1.33D-02
 ErrMax= 1.33D-02  0.00D+00 EMaxC= 1.00D-01 BMatC= 2.66D-02 BMatP= 2.66D-02
 IDIUse=3 WtCom= 8.67D-01 WtEn= 1.33D-01
 Coeff-Com:  0.100D+01
 Coeff-En:   0.100D+01
 Coeff:      0.100D+01
 Gap=     0.036 Goal=   None    Shift=    0.000
 GapD=    0.036 DampG=0.250 DampE=0.500 DampFc=0.2500 IDamp=-1.
 Damping current iteration by 2.50D-01
 RMSDP=5.40D-03 MaxDP=1.52D-01              OVMax= 2.34D-01

 Cycle   2  Pass 1  IDiag  1:
 E= -649.176423634235     Delta-E=       -0.004850152046 Rises=F Damp=T
 DIIS: error= 9.37D-03 at cycle   2 NSaved=   2.
 NSaved= 2 IEnMin= 2 EnMin= -649.176423634235     IErMin= 2 ErrMin= 9.37D-03
 ErrMax= 9.37D-03  0.00D+00 EMaxC= 1.00D-01 BMatC= 1.02D-02 BMatP= 2.66D-02
 IDIUse=3 WtCom= 9.06D-01 WtEn= 9.37D-02
 Coeff-Com: -0.126D+01 0.226D+01
 Coeff-En:   0.000D+00 0.100D+01
 Coeff:     -0.115D+01 0.215D+01
 Gap=     0.037 Goal=   None    Shift=    0.000
 RMSDP=5.21D-03 MaxDP=1.30D-01 DE=-4.85D-03 OVMax= 3.68D-01

 Cycle   3  Pass 1  IDiag  1:
 E= -649.174215574338     Delta-E=        0.002208059897 Rises=F Damp=F
 DIIS: error= 5.77D-03 at cycle   3 NSaved=   3.
 NSaved= 3 IEnMin= 2 EnMin= -649.176423634235     IErMin= 3 ErrMin= 5.77D-03
 ErrMax= 5.77D-03  0.00D+00 EMaxC= 1.00D-01 BMatC= 1.61D-03 BMatP= 1.02D-02
 IDIUse=3 WtCom= 9.42D-01 WtEn= 5.77D-02
 Coeff-Com: -0.510D+00 0.901D+00 0.609D+00
 Coeff-En:   0.000D+00 0.613D+00 0.387D+00
 Coeff:     -0.480D+00 0.884D+00 0.596D+00
 Gap=     0.035 Goal=   None    Shift=    0.000
 RMSDP=5.20D-03 MaxDP=2.43D-01 DE= 2.21D-03 OVMax= 3.77D-01

 Cycle   4  Pass 1  IDiag  1:
 E= -649.168408774142     Delta-E=        0.005806800196 Rises=F Damp=F
 DIIS: error= 6.02D-03 at cycle   4 NSaved=   4.
 NSaved= 4 IEnMin= 2 EnMin= -649.176423634235     IErMin= 3 ErrMin= 5.77D-03
 ErrMax= 6.02D-03  0.00D+00 EMaxC= 1.00D-01 BMatC= 2.28D-03 BMatP= 1.61D-03
 IDIUse=3 WtCom= 1.14D-01 WtEn= 8.86D-01
 Coeff-Com: -0.192D-01 0.503D-01 0.533D+00 0.436D+00
 Coeff-En:   0.000D+00 0.000D+00 0.567D+00 0.433D+00
 Coeff:     -0.219D-02 0.574D-02 0.563D+00 0.434D+00
 Gap=     0.039 Goal=   None    Shift=    0.000
 RMSDP=2.87D-03 MaxDP=1.37D-01 DE= 5.81D-03 OVMax= 2.21D-01

 Cycle   5  Pass 1  IDiag  1:
 E= -649.186076927154     Delta-E=       -0.017668153012 Rises=F Damp=F
 DIIS: error= 8.88D-04 at cycle   5 NSaved=   5.
 NSaved= 5 IEnMin= 5 EnMin= -649.186076927154     IErMin= 5 ErrMin= 8.88D-04
 ErrMax= 8.88D-04  0.00D+00 EMaxC= 1.00D-01 BMatC= 7.21D-05 BMatP= 1.61D-03
 IDIUse=3 WtCom= 9.91D-01 WtEn= 8.88D-03
 Coeff-Com: -0.108D-01 0.142D-01 0.236D+00 0.139D+00 0.622D+00
 Coeff-En:   0.000D+00 0.000D+00 0.000D+00 0.000D+00 0.100D+01
 Coeff:     -0.107D-01 0.141D-01 0.234D+00 0.138D+00 0.625D+00
 Gap=     0.038 Goal=   None    Shift=    0.000
 RMSDP=6.98D-04 MaxDP=2.08D-02 DE=-1.77D-02 OVMax= 2.73D-02

 Cycle   6  Pass 1  IDiag  1:
 E= -649.186258544068     Delta-E=       -0.000181616914 Rises=F Damp=F
 DIIS: error= 4.41D-04 at cycle   6 NSaved=   6.
 NSaved= 6 IEnMin= 6 EnMin= -649.186258544068     IErMin= 6 ErrMin= 4.41D-04
 ErrMax= 4.41D-04  0.00D+00 EMaxC= 1.00D-01 BMatC= 1.60D-05 BMatP= 7.21D-05
 IDIUse=3 WtCom= 9.96D-01 WtEn= 4.41D-03
 Coeff-Com: -0.111D-01 0.138D-01 0.461D-01-0.124D-01 0.330D+00 0.634D+00
 Coeff-En:   0.000D+00 0.000D+00 0.000D+00 0.000D+00 0.155D+00 0.845D+00
 Coeff:     -0.111D-01 0.137D-01 0.459D-01-0.123D-01 0.329D+00 0.635D+00
 Gap=     0.039 Goal=   None    Shift=    0.000
 RMSDP=2.40D-04 MaxDP=9.63D-03 DE=-1.82D-04 OVMax= 1.14D-02

 Cycle   7  Pass 1  IDiag  1:
 E= -649.186340231796     Delta-E=       -0.000081687727 Rises=F Damp=F
 DIIS: error= 8.37D-05 at cycle   7 NSaved=   7.
 NSaved= 7 IEnMin= 7 EnMin= -649.186340231796     IErMin= 7 ErrMin= 8.37D-05
 ErrMax= 8.37D-05  0.00D+00 EMaxC= 1.00D-01 BMatC= 8.10D-07 BMatP= 1.60D-05
 IDIUse=1 WtCom= 1.00D+00 WtEn= 0.00D+00
 Coeff-Com: -0.241D-02 0.311D-02 0.679D-02-0.132D-01 0.424D-01 0.211D+00
 Coeff-Com:  0.753D+00
 Coeff:     -0.241D-02 0.311D-02 0.679D-02-0.132D-01 0.424D-01 0.211D+00
 Coeff:      0.753D+00
 Gap=     0.039 Goal=   None    Shift=    0.000
 RMSDP=6.22D-05 MaxDP=1.66D-03 DE=-8.17D-05 OVMax= 2.34D-03

 Cycle   8  Pass 1  IDiag  1:
 E= -649.186343519721     Delta-E=       -0.000003287925 Rises=F Damp=F
 DIIS: error= 1.90D-05 at cycle   8 NSaved=   8.
 NSaved= 8 IEnMin= 8 EnMin= -649.186343519721     IErMin= 8 ErrMin= 1.90D-05
 ErrMax= 1.90D-05  0.00D+00 EMaxC= 1.00D-01 BMatC= 3.16D-08 BMatP= 8.10D-07
 IDIUse=1 WtCom= 1.00D+00 WtEn= 0.00D+00
 Coeff-Com:  0.669D-03-0.878D-03 0.136D-02-0.323D-02-0.599D-02 0.271D-01
 Coeff-Com:  0.148D+00 0.833D+00
 Coeff:      0.669D-03-0.878D-03 0.136D-02-0.323D-02-0.599D-02 0.271D-01
 Coeff:      0.148D+00 0.833D+00
 Gap=     0.039 Goal=   None    Shift=    0.000
 RMSDP=1.42D-05 MaxDP=6.01D-04 DE=-3.29D-06 OVMax= 6.53D-04

 Cycle   9  Pass 1  IDiag  1:
 E= -649.186343734512     Delta-E=       -0.000000214791 Rises=F Damp=F
 DIIS: error= 1.88D-06 at cycle   9 NSaved=   9.
 NSaved= 9 IEnMin= 9 EnMin= -649.186343734512     IErMin= 9 ErrMin= 1.88D-06
 ErrMax= 1.88D-06  0.00D+00 EMaxC= 1.00D-01 BMatC= 9.11D-10 BMatP= 3.16D-08
 IDIUse=1 WtCom= 1.00D+00 WtEn= 0.00D+00
 Coeff-Com:  0.361D-03-0.473D-03-0.274D-04-0.516D-03-0.486D-02-0.372D-02
 Coeff-Com:  0.918D-02 0.231D+00 0.769D+00
 Coeff:      0.361D-03-0.473D-03-0.274D-04-0.516D-03-0.486D-02-0.372D-02
 Coeff:      0.918D-02 0.231D+00 0.769D+00
 Gap=     0.039 Goal=   None    Shift=    0.000
 RMSDP=2.25D-06 MaxDP=4.74D-05 DE=-2.15D-07 OVMax= 7.39D-05

 Cycle  10  Pass 1  IDiag  1:
 E= -649.186343736944     Delta-E=       -0.000000002433 Rises=F Damp=F
 DIIS: error= 1.32D-06 at cycle  10 NSaved=  10.
 NSaved=10 IEnMin=10 EnMin= -649.186343736944     IErMin=10 ErrMin= 1.32D-06
 ErrMax= 1.32D-06  0.00D+00 EMaxC= 1.00D-01 BMatC= 1.17D-10 BMatP= 9.11D-10
 IDIUse=1 WtCom= 1.00D+00 WtEn= 0.00D+00
 Coeff-Com:  0.750D-04-0.984D-04-0.105D-03 0.126D-03-0.167D-02-0.459D-02
 Coeff-Com: -0.125D-01 0.232D-02 0.161D+00 0.856D+00
 Coeff:      0.750D-04-0.984D-04-0.105D-03 0.126D-03-0.167D-02-0.459D-02
 Coeff:     -0.125D-01 0.232D-02 0.161D+00 0.856D+00
 Gap=     0.039 Goal=   None    Shift=    0.000
 RMSDP=1.02D-06 MaxDP=4.86D-05 DE=-2.43D-09 OVMax= 6.88D-05

 Cycle  11  Pass 1  IDiag  1:
 E= -649.186343737725     Delta-E=       -0.000000000781 Rises=F Damp=F
 DIIS: error= 5.29D-07 at cycle  11 NSaved=  11.
 NSaved=11 IEnMin=11 EnMin= -649.186343737725     IErMin=11 ErrMin= 5.29D-07
 ErrMax= 5.29D-07  0.00D+00 EMaxC= 1.00D-01 BMatC= 1.52D-11 BMatP= 1.17D-10
 IDIUse=1 WtCom= 1.00D+00 WtEn= 0.00D+00
 Coeff-Com: -0.173D-04 0.224D-04-0.335D-04 0.346D-04-0.188D-04-0.201D-03
 Coeff-Com: -0.382D-03-0.850D-02-0.182D-01 0.214D+00 0.813D+00
 Coeff:     -0.173D-04 0.224D-04-0.335D-04 0.346D-04-0.188D-04-0.201D-03
 Coeff:     -0.382D-03-0.850D-02-0.182D-01 0.214D+00 0.813D+00
 Gap=     0.039 Goal=   None    Shift=    0.000
 RMSDP=3.84D-07 MaxDP=1.17D-05 DE=-7.81D-10 OVMax= 1.73D-05

 Cycle  12  Pass 1  IDiag  1:
 E= -649.186343737852     Delta-E=       -0.000000000127 Rises=F Damp=F
 DIIS: error= 4.73D-08 at cycle  12 NSaved=  12.
 NSaved=12 IEnMin=12 EnMin= -649.186343737852     IErMin=12 ErrMin= 4.73D-08
 ErrMax= 4.73D-08  0.00D+00 EMaxC= 1.00D-01 BMatC= 1.55D-13 BMatP= 1.52D-11
 IDIUse=1 WtCom= 1.00D+00 WtEn= 0.00D+00
 Coeff-Com: -0.257D-05 0.342D-05-0.512D-05 0.384D-05 0.232D-04 0.955D-04
 Coeff-Com:  0.347D-03-0.463D-03-0.491D-02-0.915D-02 0.715D-01 0.943D+00
 Coeff:     -0.257D-05 0.342D-05-0.512D-05 0.384D-05 0.232D-04 0.955D-04
 Coeff:      0.347D-03-0.463D-03-0.491D-02-0.915D-02 0.715D-01 0.943D+00
 Gap=     0.039 Goal=   None    Shift=    0.000
 RMSDP=4.59D-08 MaxDP=1.45D-06 DE=-1.27D-10 OVMax= 1.81D-06

 Cycle  13  Pass 1  IDiag  1:
 E= -649.186343737854     Delta-E=       -0.000000000001 Rises=F Damp=F
 DIIS: error= 5.39D-09 at cycle  13 NSaved=  13.
 NSaved=13 IEnMin=13 EnMin= -649.186343737854     IErMin=13 ErrMin= 5.39D-09
 ErrMax= 5.39D-09  0.00D+00 EMaxC= 1.00D-01 BMatC= 2.76D-15 BMatP= 1.55D-13
 IDIUse=1 WtCom= 1.00D+00 WtEn= 0.00D+00
 Coeff-Com:  0.530D-06-0.680D-06-0.444D-06 0.512D-06 0.153D-05 0.100D-04
 Coeff-Com:  0.527D-04 0.170D-03-0.105D-03-0.735D-02-0.107D-01 0.221D+00
 Coeff-Com:  0.797D+00
 Coeff:      0.530D-06-0.680D-06-0.444D-06 0.512D-06 0.153D-05 0.100D-04
 Coeff:      0.527D-04 0.170D-03-0.105D-03-0.735D-02-0.107D-01 0.221D+00
 Coeff:      0.797D+00
 Gap=     0.039 Goal=   None    Shift=    0.000
 RMSDP=6.06D-09 MaxDP=1.55D-07 DE=-1.36D-12 OVMax= 1.79D-07

 SCF Done:  E(RB3LYP) =  -649.186343738     A.U. after   13 cycles
            NFock= 13  Conv=0.61D-08     -V/T= 2.0028
 KE= 6.473772408284D+02 PE=-1.742208534735D+03 EE= 3.541286987478D+02
 Leave Link  502 at Wed Aug 23 10:07:48 2023, MaxMem=  1610612736 cpu:              19.9 elap:               1.4
 (Enter /home/sekinelabo/g16/l601.exe)
 Copying SCF densities to generalized density rwf, IOpCl= 0 IROHF=0.

 **********************************************************************

            Population analysis using the SCF Density.

 **********************************************************************

 Orbital symmetries:
       Occupied  (A) (A) (A) (A) (A) (A) (A) (A) (A) (A) (A) (A)
                 (A) (A) (A) (A) (A) (A) (A) (A) (A) (A)
       Virtual   (A) (A) (A) (A) (A) (A) (A) (A) (A) (A) (A) (A)
                 (A) (A) (A) (A) (A) (A) (A) (A) (A) (A) (A) (A)
                 (A) (A) (A) (A) (A) (A) (A) (A) (A) (A) (A) (A)
                 (A) (A) (A) (A) (A) (A) (A) (A) (A) (A) (A) (A)
                 (A) (A) (A) (A) (A) (A) (A) (A) (A) (A) (A) (A)
                 (A) (A) (A) (A) (A) (A) (A) (A) (A) (A) (A) (A)
                 (A) (A) (A) (A) (A) (A) (A) (A) (A) (A) (A) (A)
                 (A) (A) (A) (A) (A) (A) (A) (A) (A) (A) (A) (A)
                 (A) (A)
 The electronic state is 1-A.
 Alpha  occ. eigenvalues --  -38.45416 -38.45080 -38.44862 -38.44422  -2.21121
 Alpha  occ. eigenvalues --   -2.20924  -2.20635  -2.20323  -1.14903  -1.14798
 Alpha  occ. eigenvalues --   -1.14798  -1.14745  -1.14544  -1.14512  -1.14312
 Alpha  occ. eigenvalues --   -1.14291  -1.14291  -1.13927  -1.13924  -1.13893
 Alpha  occ. eigenvalues --   -0.14996  -0.11739
 Alpha virt. eigenvalues --   -0.07859  -0.03854  -0.03227  -0.03156  -0.01597
 Alpha virt. eigenvalues --   -0.01279  -0.01184  -0.00111   0.00083   0.00358
 Alpha virt. eigenvalues --    0.00468   0.01112   0.01169   0.01350   0.01497
 Alpha virt. eigenvalues --    0.01647   0.01714   0.01938   0.02045   0.02215
 Alpha virt. eigenvalues --    0.02326   0.02566   0.02643   0.02905   0.03212
 Alpha virt. eigenvalues --    0.03444   0.03892   0.04616   0.04987   0.05839
 Alpha virt. eigenvalues --    0.07065   0.07278   0.07668   0.07869   0.08065
 Alpha virt. eigenvalues --    0.08248   0.08449   0.08697   0.08872   0.10284
 Alpha virt. eigenvalues --    0.11074   0.11868   0.12910   0.13616   0.15436
 Alpha virt. eigenvalues --    0.18024   0.27985   0.28592   0.30462   0.30776
 Alpha virt. eigenvalues --    0.32674   0.33945   0.34311   0.34878   0.34918
 Alpha virt. eigenvalues --    0.35564   0.36071   0.36327   0.37653   0.39413
 Alpha virt. eigenvalues --    0.41124   0.42052   0.42689   0.42933   0.43401
 Alpha virt. eigenvalues --    0.43558   0.44120   0.44367   0.45263   0.45572
 Alpha virt. eigenvalues --    0.46092   0.46980   0.49104   0.51142   0.55684
 Alpha virt. eigenvalues --    0.58936   0.70384   0.87000   2.02492   2.07475
 Alpha virt. eigenvalues --    2.11244   2.16406   4.41322   4.42623   4.43511
 Alpha virt. eigenvalues --    4.43606   4.43852   4.44391   4.44656   4.45639
 Alpha virt. eigenvalues --    4.47744   4.49393   4.57716   4.80152  96.21737
 Alpha virt. eigenvalues --   96.27906  96.33633  96.39550
          Condensed to atoms (all electrons):
               1          2          3          4
     1  Na  10.797834   0.037502  -0.293497  -0.053558
     2  Na   0.037502  11.595540   0.209724  -0.253843
     3  Na  -0.293497   0.209724  10.869238   0.294242
     4  Na  -0.053558  -0.253843   0.294242  10.856247
 Mulliken charges:
               1
     1  Na   0.511719
     2  Na  -0.588922
     3  Na  -0.079708
     4  Na   0.156911
 Sum of Mulliken charges =  -0.00000
 Mulliken charges with hydrogens summed into heavy atoms:
               1
     1  Na   0.511719
     2  Na  -0.588922
     3  Na  -0.079708
     4  Na   0.156911
 Electronic spatial extent (au):  <R**2>=           1693.5876
 Charge=             -0.0000 electrons
 Dipole moment (field-independent basis, Debye):
    X=             -0.0241    Y=             -0.8686    Z=             -0.0724  Tot=              0.8719
 Quadrupole moment (field-independent basis, Debye-Ang):
   XX=            -29.9251   YY=            -36.9638   ZZ=            -43.4477
   XY=             -0.2465   XZ=              0.9241   YZ=              0.0151
 Traceless Quadrupole moment (field-independent basis, Debye-Ang):
   XX=              6.8538   YY=             -0.1849   ZZ=             -6.6689
   XY=             -0.2465   XZ=              0.9241   YZ=              0.0151
 Octapole moment (field-independent basis, Debye-Ang**2):
  XXX=              2.9919  YYY=             -1.2459  ZZZ=             -0.1221  XYY=             -1.1743
  XXY=            -51.9127  XXZ=             -1.6961  XZZ=             -2.1063  YZZ=              0.1863
  YYZ=             -0.8062  XYZ=             -3.1995
 Hexadecapole moment (field-independent basis, Debye-Ang**3):
 XXXX=          -1978.9018 YYYY=           -396.2619 ZZZZ=           -185.0846 XXXY=            -16.5985
 XXXZ=             34.8219 YYYX=              4.1372 YYYZ=             -0.6868 ZZZX=              4.0778
 ZZZY=              0.2511 XXYY=           -418.2082 XXZZ=           -453.1461 YYZZ=            -98.0970
 XXYZ=              3.2199 YYXZ=              0.9987 ZZXY=             -0.4190
 N-N= 9.151625142098D+01 E-N=-1.742208533702D+03  KE= 6.473772408284D+02
 No NMR shielding tensors so no spin-rotation constants.
 Leave Link  601 at Wed Aug 23 10:07:48 2023, MaxMem=  1610612736 cpu:               0.9 elap:               0.1
 (Enter /home/sekinelabo/g16/l701.exe)
 ... and contract with generalized density number  0.
 Compute integral first derivatives.
 Leave Link  701 at Wed Aug 23 10:07:48 2023, MaxMem=  1610612736 cpu:               1.2 elap:               0.1
 (Enter /home/sekinelabo/g16/l702.exe)
 L702 exits ... SP integral derivatives will be done elsewhere.
 Leave Link  702 at Wed Aug 23 10:07:48 2023, MaxMem=  1610612736 cpu:               0.3 elap:               0.0
 (Enter /home/sekinelabo/g16/l703.exe)
 Integral derivatives from FoFJK, PRISM(SPDF).
 Compute integral first derivatives, UseDBF=F ICtDFT=           0.
 Calling FoFJK, ICntrl=      2127 FMM=F ISym2X=0 I1Cent= 0 IOpClX= 0 NMat=1 NMatS=1 NMatT=0.
 FoFJK:  IHMeth= 1 ICntrl=    2127 DoSepK=F KAlg= 0 I1Cent=           0 FoldK=F
 IRaf=         0 NMat=       1 IRICut=       1 DoRegI=T DoRafI=F ISym2E= 0 IDoP0=0 IntGTp=1.
 FoFCou: FMM=F IPFlag=           0 FMFlag=      100000 FMFlg1=         800
         NFxFlg=           0 DoJE=F BraDBF=F KetDBF=F FulRan=T
         wScrn=  0.000000 ICntrl=      2127 IOpCl=  0 I1Cent=           0 NGrid=           0
         NMat0=    1 NMatS0=      1 NMatT0=    0 NMatD0=    1 NMtDS0=    0 NMtDT0=    0
 Symmetry not used in FoFCou.
 Leave Link  703 at Wed Aug 23 10:07:48 2023, MaxMem=  1610612736 cpu:               5.9 elap:               0.4
 (Enter /home/sekinelabo/g16/l716.exe)
 Dipole        =-9.47228725D-03-3.41714697D-01-2.84970464D-02
 ***** Axes restored to original set *****
 -------------------------------------------------------------------
 Center     Atomic                   Forces (Hartrees/Bohr)
 Number     Number              X              Y              Z
 -------------------------------------------------------------------
      1       11          -0.000174033    0.000313635   -0.000326817
      2       11          -0.004857249   -0.000514757   -0.015731358
      3       11           0.009488631   -0.003482757    0.018919444
      4       11          -0.004457349    0.003683879   -0.002861269
 -------------------------------------------------------------------
 Cartesian Forces:  Max     0.018919444 RMS     0.008027576
 Z-matrix is all fixed cartesians, so copy forces.
 Force constants in Cartesian coordinates: 
                1             2             3             4             5 
      1  0.859395D-02
      2  0.000000D+00  0.536724D-02
      3 -0.562843D-02  0.000000D+00  0.289920D-01
      4 -0.164701D-01 -0.210273D-02  0.359941D-02  0.447119D-01
      5  0.000000D+00 -0.127064D-01  0.000000D+00  0.182276D-03  0.359135D-01
      6  0.808258D-02  0.655199D-03 -0.283598D-01  0.991945D-02 -0.567963D-04
      7  0.787610D-02  0.427633D-02  0.202902D-02 -0.298707D-01 -0.438277D-02
      8  0.000000D+00  0.930003D-02  0.000000D+00  0.326832D-02 -0.304226D-01
      9 -0.245415D-02 -0.133248D-02 -0.632232D-03 -0.962176D-02 -0.275650D-02
     10  0.000000D+00 -0.217360D-02  0.000000D+00  0.162885D-02  0.420049D-02
     11  0.000000D+00 -0.196084D-02  0.000000D+00 -0.134787D-02  0.721552D-02
     12  0.000000D+00  0.677282D-03  0.000000D+00 -0.389710D-02  0.281330D-02
                6             7             8             9            10 
      6  0.943783D-01
      7 -0.174945D-01  0.298904D-01
      8 -0.101839D-02 -0.537174D-02  0.321110D-01
      9 -0.672329D-01  0.143245D-01  0.298385D-02  0.751914D-01
     10 -0.507542D-03 -0.789576D-02  0.210342D-02 -0.224862D-02  0.626691D-02
     11  0.419989D-03  0.547818D-02 -0.109885D-01  0.110514D-02 -0.413032D-02
     12  0.121432D-02  0.114094D-02 -0.196546D-02 -0.732627D-02  0.275616D-02
               11            12 
     11  0.573378D-02
     12 -0.152513D-02  0.611196D-02
 Leave Link  716 at Wed Aug 23 10:07:48 2023, MaxMem=  1610612736 cpu:               0.3 elap:               0.0
 (Enter /home/sekinelabo/g16/l103.exe)

 GradGradGradGradGradGradGradGradGradGradGradGradGradGradGradGradGradGrad
 Berny optimization.
 Search for a local minimum.
 Step number   1 out of a maximum of    2
 All quantities printed in internal units (Hartrees-Bohrs-Radians)
 Second derivative matrix not updated -- first step.
 The second derivative matrix:
                          X1        Y1        Z1        X2        Y2
           X1           0.00859
           Y1           0.00000   0.00537
           Z1          -0.00563   0.00000   0.02899
           X2          -0.01647  -0.00210   0.00360   0.04471
           Y2          -0.00000  -0.01271   0.00000   0.00018   0.03591
           Z2           0.00808   0.00066  -0.02836   0.00992  -0.00006
           X3           0.00788   0.00428   0.00203  -0.02987  -0.00438
           Y3           0.00000   0.00930   0.00000   0.00327  -0.03042
           Z3          -0.00245  -0.00133  -0.00063  -0.00962  -0.00276
           X4          -0.00000  -0.00217  -0.00000   0.00163   0.00420
           Y4           0.00000  -0.00196  -0.00000  -0.00135   0.00722
           Z4           0.00000   0.00068   0.00000  -0.00390   0.00281
                          Z2        X3        Y3        Z3        X4
           Z2           0.09438
           X3          -0.01749   0.02989
           Y3          -0.00102  -0.00537   0.03211
           Z3          -0.06723   0.01432   0.00298   0.07519
           X4          -0.00051  -0.00790   0.00210  -0.00225   0.00627
           Y4           0.00042   0.00548  -0.01099   0.00111  -0.00413
           Z4           0.00121   0.00114  -0.00197  -0.00733   0.00276
                          Y4        Z4
           Y4           0.00573
           Z4          -0.00153   0.00611
 ITU=  0
     Eigenvalues ---    0.00758   0.01919   0.04024   0.06953   0.07331
     Eigenvalues ---    0.16342
 Quadratic step=4.091D-01 exceeds max=3.000D-01 adjusted using Lamda=-9.808D-03.
 Angle between NR and scaled steps=   8.51 degrees.
 Angle between quadratic step and forces=  40.78 degrees.
 Linear search not attempted -- first point.
 B after Tr=     0.000000    0.000000    0.000000
         Rot=    1.000000    0.000000    0.000000    0.000000 Ang=   0.00 deg.
 Variable       Old X    -DE/DX   Delta X   Delta X   Delta X     New X
                                 (Linear)    (Quad)   (Total)
    X1       -0.00000  -0.00017   0.00000  -0.02215  -0.02215  -0.02215
    Y1        0.00000   0.00031   0.00000   0.01939   0.01939   0.01939
    Z1       -0.00000  -0.00033   0.00000  -0.04570  -0.04570  -0.04570
    X2       -1.47578  -0.00486   0.00000   0.02142   0.02142  -1.45436
    Y2        0.00000  -0.00051   0.00000  -0.03780  -0.03780  -0.03780
    Z2        5.72858  -0.01573   0.00000  -0.03810  -0.03810   5.69048
    X3        0.00000   0.00949   0.00000   0.13140   0.13140   0.13140
    Y3       -0.00000  -0.00348   0.00000  -0.08273  -0.08273  -0.08273
    Z3       10.46481   0.01892   0.00000   0.16220   0.16220  10.62701
    X4        4.89242  -0.00446   0.00000  -0.13068  -0.13068   4.76175
    Y4       -4.21360   0.00368   0.00000   0.10114   0.10114  -4.11246
    Z4       13.96701  -0.00286   0.00000  -0.07840  -0.07840  13.88861
         Item               Value     Threshold  Converged?
 Maximum Force            0.018919     0.000450     NO 
 RMS     Force            0.008028     0.000300     NO 
 Maximum Displacement     0.162202     0.001800     NO 
 RMS     Displacement     0.086683     0.001200     NO 
 Predicted change in Energy=-3.603535D-03
 GradGradGradGradGradGradGradGradGradGradGradGradGradGradGradGradGradGrad

 Leave Link  103 at Wed Aug 23 10:07:48 2023, MaxMem=  1610612736 cpu:               0.1 elap:               0.0
 (Enter /home/sekinelabo/g16/l9999.exe)
 1\1\GINC-SEKINELABO-XA7R-R37\Force\RB3LYP\6-311+G(d)\Na4\SEKINELABO\23
 -Aug-2023\0\\#p B3LYP/6-311+g(d) force\\\0,1\Na,0.,0.,0.\Na,-0.7809506
 015,0.,3.0314335782\Na,0.,0.,5.5377377016\Na,2.5889584461,-2.229743317
 1,7.3910227661\\Version=ES64L-G16RevB.01\State=1-A\HF=-649.1863437\RMS
 D=6.063e-09\RMSF=8.028e-03\Dipole=0.2678593,-0.1517881,-0.1512696\Quad
 rupole=-1.348829,-2.6569324,4.0057614,-2.8692314,1.2421626,-1.8845657\
 PG=C01 [X(Na4)]\\@


 TIMES HAVE CHANGED. IN THE BIBLE WHEN AN ASS
 SPOKE IT WAS CONSIDERED A MIRACLE.
 Job cpu time:       0 days  0 hours  0 minutes 34.6 seconds.
 Elapsed time:       0 days  0 hours  0 minutes  2.4 seconds.
 File lengths (MBytes):  RWF=     10 Int=      0 D2E=      0 Chk=      2 Scr=      1
 Normal termination of Gaussian 16 at Wed Aug 23 10:07:48 2023.
 Initial command:
 /home/sekinelabo/g16/l1.exe "/home/sekinelabo/g16temp/Gau-2966229.inp" -scrdir="/home/sekinelabo/g16temp/"
 Entering Link 1 = /home/sekinelabo/g16/l1.exe PID=   2966957.
  
 Copyright (c) 1988-2017, Gaussian, Inc.  All Rights Reserved.
  
 This is part of the Gaussian(R) 16 program.  It is based on
 the Gaussian(R) 09 system (copyright 2009, Gaussian, Inc.),
 the Gaussian(R) 03 system (copyright 2003, Gaussian, Inc.),
 the Gaussian(R) 98 system (copyright 1998, Gaussian, Inc.),
 the Gaussian(R) 94 system (copyright 1995, Gaussian, Inc.),
 the Gaussian 92(TM) system (copyright 1992, Gaussian, Inc.),
 the Gaussian 90(TM) system (copyright 1990, Gaussian, Inc.),
 the Gaussian 88(TM) system (copyright 1988, Gaussian, Inc.),
 the Gaussian 86(TM) system (copyright 1986, Carnegie Mellon
 University), and the Gaussian 82(TM) system (copyright 1983,
 Carnegie Mellon University). Gaussian is a federally registered
 trademark of Gaussian, Inc.
  
 This software contains proprietary and confidential information,
 including trade secrets, belonging to Gaussian, Inc.
  
 This software is provided under written license and may be
 used, copied, transmitted, or stored only in accord with that
 written license.
  
 The following legend is applicable only to US Government
 contracts under FAR:
  
                    RESTRICTED RIGHTS LEGEND
  
 Use, reproduction and disclosure by the US Government is
 subject to restrictions as set forth in subparagraphs (a)
 and (c) of the Commercial Computer Software - Restricted
 Rights clause in FAR 52.227-19.
  
 Gaussian, Inc.
 340 Quinnipiac St., Bldg. 40, Wallingford CT 06492
  
  
 ---------------------------------------------------------------
 Warning -- This program may not be used in any manner that
 competes with the business of Gaussian, Inc. or will provide
 assistance to any competitor of Gaussian, Inc.  The licensee
 of this program is prohibited from giving any competitor of
 Gaussian, Inc. access to this program.  By using this program,
 the user acknowledges that Gaussian, Inc. is engaged in the
 business of creating and licensing software in the field of
 computational chemistry and represents and warrants to the
 licensee that it is not a competitor of Gaussian, Inc. and that
 it will not use this program in any manner prohibited above.
 ---------------------------------------------------------------
  

 Cite this work as:
 Gaussian 16, Revision B.01,
 M. J. Frisch, G. W. Trucks, H. B. Schlegel, G. E. Scuseria, 
 M. A. Robb, J. R. Cheeseman, G. Scalmani, V. Barone, 
 G. A. Petersson, H. Nakatsuji, X. Li, M. Caricato, A. V. Marenich, 
 J. Bloino, B. G. Janesko, R. Gomperts, B. Mennucci, H. P. Hratchian, 
 J. V. Ortiz, A. F. Izmaylov, J. L. Sonnenberg, D. Williams-Young, 
 F. Ding, F. Lipparini, F. Egidi, J. Goings, B. Peng, A. Petrone, 
 T. Henderson, D. Ranasinghe, V. G. Zakrzewski, J. Gao, N. Rega, 
 G. Zheng, W. Liang, M. Hada, M. Ehara, K. Toyota, R. Fukuda, 
 J. Hasegawa, M. Ishida, T. Nakajima, Y. Honda, O. Kitao, H. Nakai, 
 T. Vreven, K. Throssell, J. A. Montgomery, Jr., J. E. Peralta, 
 F. Ogliaro, M. J. Bearpark, J. J. Heyd, E. N. Brothers, K. N. Kudin, 
 V. N. Staroverov, T. A. Keith, R. Kobayashi, J. Normand, 
 K. Raghavachari, A. P. Rendell, J. C. Burant, S. S. Iyengar, 
 J. Tomasi, M. Cossi, J. M. Millam, M. Klene, C. Adamo, R. Cammi, 
 J. W. Ochterski, R. L. Martin, K. Morokuma, O. Farkas, 
 J. B. Foresman, and D. J. Fox, Gaussian, Inc., Wallingford CT, 2016.
 
 ******************************************
 Gaussian 16:  ES64L-G16RevB.01 20-Dec-2017
                28-Aug-2023 
 ******************************************
 %NProcShared=16
 Will use up to   16 processors via shared memory.
 %mem=12GB
 %Chk=checkpoint.chk
 -------------------------
 #p B3LYP/6-311+g(d) force
 -------------------------
 1/10=7,30=1,38=1/1,3;
 2/12=2,17=6,18=5,40=1/2;
 3/5=4,6=6,7=11,11=2,25=1,30=1,71=1,74=-5/1,2,3;
 4//1;
 5/5=2,38=5/2;
 6/7=2,8=2,9=2,10=2,28=1/1;
 7/29=1/1,2,3,16;
 1/10=7,30=1/3;
 99//99;
 Leave Link    1 at Mon Aug 28 10:18:06 2023, MaxMem=  1610612736 cpu:               0.2 elap:               0.0
 (Enter /home/sekinelabo/g16/l101.exe)


 Symbolic Z-matrix:
 Charge =  0 Multiplicity = 1
 Na                    0.        0.        0. 
 Na                   -2.49398   0.        0.38795 
 Na                    0.        0.        2.95026 
 Na                    3.20142  -1.88561   3.61052 
 
 ITRead=  0  0  0  0
 MicOpt= -1 -1 -1 -1
 NAtoms=      4 NQM=        4 NQMF=       0 NMMI=      0 NMMIF=      0
                NMic=       0 NMicF=      0.
                    Isotopes and Nuclear Properties:
 (Nuclear quadrupole moments (NQMom) in fm**2, nuclear magnetic moments (NMagM)
  in nuclear magnetons)

  Atom         1           2           3           4
 IAtWgt=          23          23          23          23
 AtmWgt=  22.9897697  22.9897697  22.9897697  22.9897697
 NucSpn=           3           3           3           3
 AtZEff=  -0.0000000  -0.0000000  -0.0000000  -0.0000000
 NQMom=   10.4000000  10.4000000  10.4000000  10.4000000
 NMagM=    2.2175200   2.2175200   2.2175200   2.2175200
 AtZNuc=  11.0000000  11.0000000  11.0000000  11.0000000
 Leave Link  101 at Mon Aug 28 10:18:06 2023, MaxMem=  1610612736 cpu:               1.8 elap:               0.1
 (Enter /home/sekinelabo/g16/l103.exe)

 GradGradGradGradGradGradGradGradGradGradGradGradGradGradGradGradGradGrad
 Berny optimization.
 Initialization pass.
 Trust Radius=3.00D-01 FncErr=1.00D-07 GrdErr=1.00D-07 EigMax=2.50D+02 EigMin=1.00D-04
 Number of steps in this run=      2 maximum allowed number of steps=      2.
 GradGradGradGradGradGradGradGradGradGradGradGradGradGradGradGradGradGrad

 Leave Link  103 at Mon Aug 28 10:18:06 2023, MaxMem=  1610612736 cpu:               0.2 elap:               0.0
 (Enter /home/sekinelabo/g16/l202.exe)
                          Input orientation:                          
 ---------------------------------------------------------------------
 Center     Atomic      Atomic             Coordinates (Angstroms)
 Number     Number       Type             X           Y           Z
 ---------------------------------------------------------------------
      1         11           0        0.000000    0.000000    0.000000
      2         11           0       -2.493978    0.000000    0.387952
      3         11           0        0.000000    0.000000    2.950264
      4         11           0        3.201424   -1.885610    3.610522
 ---------------------------------------------------------------------
                    Distance matrix (angstroms):
                    1          2          3          4
     1  Na   0.000000
     2  Na   2.523972   0.000000
     3  Na   2.950264   3.575664   0.000000
     4  Na   5.180782   6.810146   3.773669   0.000000
 Stoichiometry    Na4
 Framework group  C1[X(Na4)]
 Deg. of freedom     6
 Full point group                 C1      NOp   1
 Largest Abelian subgroup         C1      NOp   1
 Largest concise Abelian subgroup C1      NOp   1
                         Standard orientation:                         
 ---------------------------------------------------------------------
 Center     Atomic      Atomic             Coordinates (Angstroms)
 Number     Number       Type             X           Y           Z
 ---------------------------------------------------------------------
      1         11           0        1.229938    1.285512   -0.325613
      2         11           0        2.971884   -0.363150    0.460498
      3         11           0       -0.393434   -1.175585   -0.433903
      4         11           0       -3.808388    0.253224    0.299018
 ---------------------------------------------------------------------
 Rotational constants (GHZ):           5.7451683           0.8587285           0.7785926
 Leave Link  202 at Mon Aug 28 10:18:06 2023, MaxMem=  1610612736 cpu:               0.0 elap:               0.0
 (Enter /home/sekinelabo/g16/l301.exe)
 Standard basis: 6-311+G(d) (5D, 7F)
 Ernie: Thresh=  0.10000D-02 Tol=  0.10000D-05 Strict=F.
 There are   124 symmetry adapted cartesian basis functions of A   symmetry.
 There are   120 symmetry adapted basis functions of A   symmetry.
   120 basis functions,   200 primitive gaussians,   124 cartesian basis functions
    22 alpha electrons       22 beta electrons
       nuclear repulsion energy       103.7086240439 Hartrees.
 IExCor=  402 DFT=T Ex+Corr=B3LYP ExCW=0 ScaHFX=  0.200000
 ScaDFX=  0.800000  0.720000  1.000000  0.810000 ScalE2=  1.000000  1.000000
 IRadAn=      5 IRanWt=     -1 IRanGd=            0 ICorTp=0 IEmpDi=  4
 NAtoms=    4 NActive=    4 NUniq=    4 SFac= 1.00D+00 NAtFMM=   60 NAOKFM=F Big=F
 Integral buffers will be    131072 words long.
 Raffenetti 2 integral format.
 Two-electron integral symmetry is turned on.
 Leave Link  301 at Mon Aug 28 10:18:06 2023, MaxMem=  1610612736 cpu:               0.4 elap:               0.0
 (Enter /home/sekinelabo/g16/l302.exe)
 NPDir=0 NMtPBC=     1 NCelOv=     1 NCel=       1 NClECP=     1 NCelD=      1
         NCelK=      1 NCelE2=     1 NClLst=     1 CellRange=     0.0.
 One-electron integrals computed using PRISM.
 One-electron integral symmetry used in STVInt
 NBasis=   120 RedAO= T EigKep=  1.70D-05  NBF=   120
 NBsUse=   120 1.00D-06 EigRej= -1.00D+00 NBFU=   120
 Precomputing XC quadrature grid using
 IXCGrd= 4 IRadAn=           5 IRanWt=          -1 IRanGd=           0 AccXCQ= 0.00D+00.
 Generated NRdTot=       0 NPtTot=           0 NUsed=           0 NTot=          32
 NSgBfM=   118   118   118   118   118 MxSgAt=     4 MxSgA2=     4.
 Leave Link  302 at Mon Aug 28 10:18:07 2023, MaxMem=  1610612736 cpu:               1.8 elap:               0.1
 (Enter /home/sekinelabo/g16/l303.exe)
 DipDrv:  MaxL=1.
 Leave Link  303 at Mon Aug 28 10:18:07 2023, MaxMem=  1610612736 cpu:               0.3 elap:               0.0
 (Enter /home/sekinelabo/g16/l401.exe)
 ExpMin= 7.60D-03 ExpMax= 3.62D+04 ExpMxC= 1.21D+03 IAcc=3 IRadAn=         5 AccDes= 0.00D+00
 Harris functional with IExCor=  402 and IRadAn=       5 diagonalized for initial guess.
 HarFok:  IExCor=  402 AccDes= 0.00D+00 IRadAn=         5 IDoV= 1 UseB2=F ITyADJ=14
 ICtDFT=  3500011 ScaDFX=  1.000000  1.000000  1.000000  1.000000
 FoFCou: FMM=F IPFlag=           0 FMFlag=      100000 FMFlg1=           0
         NFxFlg=           0 DoJE=T BraDBF=F KetDBF=T FulRan=T
         wScrn=  0.000000 ICntrl=       500 IOpCl=  0 I1Cent=   200000004 NGrid=           0
         NMat0=    1 NMatS0=      1 NMatT0=    0 NMatD0=    1 NMtDS0=    0 NMtDT0=    0
 Petite list used in FoFCou.
 Harris En= -649.061413635589    
 JPrj=0 DoOrth=F DoCkMO=F.
 Leave Link  401 at Mon Aug 28 10:18:07 2023, MaxMem=  1610612736 cpu:               2.0 elap:               0.1
 (Enter /home/sekinelabo/g16/l502.exe)
 Keep R1 ints in memory in canonical form, NReq=41581770.
 FoFCou: FMM=F IPFlag=           0 FMFlag=           0 FMFlg1=           0
         NFxFlg=           0 DoJE=F BraDBF=F KetDBF=F FulRan=T
         wScrn=  0.000000 ICntrl=       600 IOpCl=  0 I1Cent=           0 NGrid=           0
         NMat0=    1 NMatS0=   7260 NMatT0=    0 NMatD0=    1 NMtDS0=    0 NMtDT0=    0
 Symmetry not used in FoFCou.
 Two-electron integral symmetry not used.
 Closed shell SCF:
 Using DIIS extrapolation, IDIIS=  1040.
 NGot=  1610612736 LenX=  1584221372 LenY=  1584205555
 Requested convergence on RMS density matrix=1.00D-08 within 128 cycles.
 Requested convergence on MAX density matrix=1.00D-06.
 Requested convergence on             energy=1.00D-06.
 No special actions if energy rises.

 Cycle   1  Pass 1  IDiag  1:
 E= -649.175041326989    
 DIIS: error= 1.21D-02 at cycle   1 NSaved=   1.
 NSaved= 1 IEnMin= 1 EnMin= -649.175041326989     IErMin= 1 ErrMin= 1.21D-02
 ErrMax= 1.21D-02  0.00D+00 EMaxC= 1.00D-01 BMatC= 2.65D-02 BMatP= 2.65D-02
 IDIUse=3 WtCom= 8.79D-01 WtEn= 1.21D-01
 Coeff-Com:  0.100D+01
 Coeff-En:   0.100D+01
 Coeff:      0.100D+01
 Gap=     0.045 Goal=   None    Shift=    0.000
 GapD=    0.045 DampG=0.250 DampE=0.500 DampFc=0.2500 IDamp=-1.
 Damping current iteration by 2.50D-01
 RMSDP=3.63D-03 MaxDP=1.52D-01              OVMax= 1.88D-01

 Cycle   2  Pass 1  IDiag  1:
 E= -649.179863028616     Delta-E=       -0.004821701627 Rises=F Damp=T
 DIIS: error= 8.40D-03 at cycle   2 NSaved=   2.
 NSaved= 2 IEnMin= 2 EnMin= -649.179863028616     IErMin= 2 ErrMin= 8.40D-03
 ErrMax= 8.40D-03  0.00D+00 EMaxC= 1.00D-01 BMatC= 1.03D-02 BMatP= 2.65D-02
 IDIUse=3 WtCom= 9.16D-01 WtEn= 8.40D-02
 Coeff-Com: -0.130D+01 0.230D+01
 Coeff-En:   0.000D+00 0.100D+01
 Coeff:     -0.119D+01 0.219D+01
 Gap=     0.057 Goal=   None    Shift=    0.000
 RMSDP=2.96D-03 MaxDP=8.16D-02 DE=-4.82D-03 OVMax= 1.74D-01

 Cycle   3  Pass 1  IDiag  1:
 E= -649.188566485384     Delta-E=       -0.008703456768 Rises=F Damp=F
 DIIS: error= 1.65D-03 at cycle   3 NSaved=   3.
 NSaved= 3 IEnMin= 3 EnMin= -649.188566485384     IErMin= 3 ErrMin= 1.65D-03
 ErrMax= 1.65D-03  0.00D+00 EMaxC= 1.00D-01 BMatC= 2.15D-04 BMatP= 1.03D-02
 IDIUse=3 WtCom= 9.84D-01 WtEn= 1.65D-02
 Coeff-Com: -0.149D+00 0.256D+00 0.893D+00
 Coeff-En:   0.000D+00 0.000D+00 0.100D+01
 Coeff:     -0.147D+00 0.252D+00 0.895D+00
 Gap=     0.048 Goal=   None    Shift=    0.000
 RMSDP=1.56D-03 MaxDP=8.25D-02 DE=-8.70D-03 OVMax= 1.46D-01

 Cycle   4  Pass 1  IDiag  1:
 E= -649.187095516783     Delta-E=        0.001470968600 Rises=F Damp=F
 DIIS: error= 2.64D-03 at cycle   4 NSaved=   4.
 NSaved= 4 IEnMin= 3 EnMin= -649.188566485384     IErMin= 3 ErrMin= 1.65D-03
 ErrMax= 2.64D-03  0.00D+00 EMaxC= 1.00D-01 BMatC= 4.53D-04 BMatP= 2.15D-04
 IDIUse=3 WtCom= 1.63D-01 WtEn= 8.37D-01
 Coeff-Com:  0.458D-02-0.562D-02 0.594D+00 0.407D+00
 Coeff-En:   0.000D+00 0.000D+00 0.652D+00 0.348D+00
 Coeff:      0.746D-03-0.915D-03 0.642D+00 0.358D+00
 Gap=     0.050 Goal=   None    Shift=    0.000
 RMSDP=8.38D-04 MaxDP=3.93D-02 DE= 1.47D-03 OVMax= 7.75D-02

 Cycle   5  Pass 1  IDiag  1:
 E= -649.189771616923     Delta-E=       -0.002676100140 Rises=F Damp=F
 DIIS: error= 3.58D-04 at cycle   5 NSaved=   5.
 NSaved= 5 IEnMin= 5 EnMin= -649.189771616923     IErMin= 5 ErrMin= 3.58D-04
 ErrMax= 3.58D-04  0.00D+00 EMaxC= 1.00D-01 BMatC= 8.47D-06 BMatP= 2.15D-04
 IDIUse=3 WtCom= 9.96D-01 WtEn= 3.58D-03
 Coeff-Com:  0.162D-02-0.288D-02 0.193D+00 0.329D-01 0.775D+00
 Coeff-En:   0.000D+00 0.000D+00 0.000D+00 0.000D+00 0.100D+01
 Coeff:      0.161D-02-0.287D-02 0.192D+00 0.328D-01 0.776D+00
 Gap=     0.051 Goal=   None    Shift=    0.000
 RMSDP=1.35D-04 MaxDP=5.38D-03 DE=-2.68D-03 OVMax= 1.22D-02

 Cycle   6  Pass 1  IDiag  1:
 E= -649.189817887950     Delta-E=       -0.000046271026 Rises=F Damp=F
 DIIS: error= 2.70D-05 at cycle   6 NSaved=   6.
 NSaved= 6 IEnMin= 6 EnMin= -649.189817887950     IErMin= 6 ErrMin= 2.70D-05
 ErrMax= 2.70D-05  0.00D+00 EMaxC= 1.00D-01 BMatC= 1.85D-07 BMatP= 8.47D-06
 IDIUse=1 WtCom= 1.00D+00 WtEn= 0.00D+00
 Coeff-Com: -0.109D-02 0.110D-02-0.336D-02-0.306D-01 0.247D+00 0.787D+00
 Coeff:     -0.109D-02 0.110D-02-0.336D-02-0.306D-01 0.247D+00 0.787D+00
 Gap=     0.051 Goal=   None    Shift=    0.000
 RMSDP=2.09D-05 MaxDP=5.97D-04 DE=-4.63D-05 OVMax= 6.76D-04

 Cycle   7  Pass 1  IDiag  1:
 E= -649.189818205008     Delta-E=       -0.000000317059 Rises=F Damp=F
 DIIS: error= 7.02D-06 at cycle   7 NSaved=   7.
 NSaved= 7 IEnMin= 7 EnMin= -649.189818205008     IErMin= 7 ErrMin= 7.02D-06
 ErrMax= 7.02D-06  0.00D+00 EMaxC= 1.00D-01 BMatC= 3.42D-09 BMatP= 1.85D-07
 IDIUse=1 WtCom= 1.00D+00 WtEn= 0.00D+00
 Coeff-Com: -0.364D-03 0.445D-03-0.778D-02-0.516D-02 0.636D-02 0.556D-01
 Coeff-Com:  0.951D+00
 Coeff:     -0.364D-03 0.445D-03-0.778D-02-0.516D-02 0.636D-02 0.556D-01
 Coeff:      0.951D+00
 Gap=     0.051 Goal=   None    Shift=    0.000
 RMSDP=5.59D-06 MaxDP=1.78D-04 DE=-3.17D-07 OVMax= 3.08D-04

 Cycle   8  Pass 1  IDiag  1:
 E= -649.189818229011     Delta-E=       -0.000000024003 Rises=F Damp=F
 DIIS: error= 2.34D-06 at cycle   8 NSaved=   8.
 NSaved= 8 IEnMin= 8 EnMin= -649.189818229011     IErMin= 8 ErrMin= 2.34D-06
 ErrMax= 2.34D-06  0.00D+00 EMaxC= 1.00D-01 BMatC= 1.05D-09 BMatP= 3.42D-09
 IDIUse=1 WtCom= 1.00D+00 WtEn= 0.00D+00
 Coeff-Com: -0.183D-04 0.196D-04-0.305D-02-0.938D-03-0.869D-02-0.193D-01
 Coeff-Com:  0.367D+00 0.665D+00
 Coeff:     -0.183D-04 0.196D-04-0.305D-02-0.938D-03-0.869D-02-0.193D-01
 Coeff:      0.367D+00 0.665D+00
 Gap=     0.051 Goal=   None    Shift=    0.000
 RMSDP=1.93D-06 MaxDP=5.90D-05 DE=-2.40D-08 OVMax= 1.02D-04

 Cycle   9  Pass 1  IDiag  1:
 E= -649.189818232353     Delta-E=       -0.000000003342 Rises=F Damp=F
 DIIS: error= 6.25D-07 at cycle   9 NSaved=   9.
 NSaved= 9 IEnMin= 9 EnMin= -649.189818232353     IErMin= 9 ErrMin= 6.25D-07
 ErrMax= 6.25D-07  0.00D+00 EMaxC= 1.00D-01 BMatC= 4.60D-11 BMatP= 1.05D-09
 IDIUse=1 WtCom= 1.00D+00 WtEn= 0.00D+00
 Coeff-Com:  0.586D-04-0.764D-04-0.911D-04 0.448D-03-0.397D-02-0.886D-02
 Coeff-Com: -0.267D-01 0.123D+00 0.916D+00
 Coeff:      0.586D-04-0.764D-04-0.911D-04 0.448D-03-0.397D-02-0.886D-02
 Coeff:     -0.267D-01 0.123D+00 0.916D+00
 Gap=     0.051 Goal=   None    Shift=    0.000
 RMSDP=8.17D-07 MaxDP=2.02D-05 DE=-3.34D-09 OVMax= 4.57D-05

 Cycle  10  Pass 1  IDiag  1:
 E= -649.189818232690     Delta-E=       -0.000000000337 Rises=F Damp=F
 DIIS: error= 2.84D-07 at cycle  10 NSaved=  10.
 NSaved=10 IEnMin=10 EnMin= -649.189818232690     IErMin=10 ErrMin= 2.84D-07
 ErrMax= 2.84D-07  0.00D+00 EMaxC= 1.00D-01 BMatC= 5.06D-12 BMatP= 4.60D-11
 IDIUse=1 WtCom= 1.00D+00 WtEn= 0.00D+00
 Coeff-Com:  0.904D-05-0.116D-04 0.157D-03 0.161D-03-0.134D-03-0.200D-03
 Coeff-Com: -0.358D-01-0.191D-01 0.229D+00 0.826D+00
 Coeff:      0.904D-05-0.116D-04 0.157D-03 0.161D-03-0.134D-03-0.200D-03
 Coeff:     -0.358D-01-0.191D-01 0.229D+00 0.826D+00
 Gap=     0.051 Goal=   None    Shift=    0.000
 RMSDP=2.36D-07 MaxDP=5.72D-06 DE=-3.37D-10 OVMax= 1.50D-05

 Cycle  11  Pass 1  IDiag  1:
 E= -649.189818232736     Delta-E=       -0.000000000046 Rises=F Damp=F
 DIIS: error= 9.55D-08 at cycle  11 NSaved=  11.
 NSaved=11 IEnMin=11 EnMin= -649.189818232736     IErMin=11 ErrMin= 9.55D-08
 ErrMax= 9.55D-08  0.00D+00 EMaxC= 1.00D-01 BMatC= 4.27D-13 BMatP= 5.06D-12
 IDIUse=1 WtCom= 1.00D+00 WtEn= 0.00D+00
 Coeff-Com: -0.932D-05 0.122D-04 0.768D-04-0.488D-04 0.738D-03 0.131D-02
 Coeff-Com: -0.349D-02-0.201D-01-0.790D-01 0.150D+00 0.950D+00
 Coeff:     -0.932D-05 0.122D-04 0.768D-04-0.488D-04 0.738D-03 0.131D-02
 Coeff:     -0.349D-02-0.201D-01-0.790D-01 0.150D+00 0.950D+00
 Gap=     0.051 Goal=   None    Shift=    0.000
 RMSDP=8.08D-08 MaxDP=1.67D-06 DE=-4.63D-11 OVMax= 5.37D-06

 Cycle  12  Pass 1  IDiag  1:
 E= -649.189818232737     Delta-E=       -0.000000000001 Rises=F Damp=F
 DIIS: error= 1.81D-08 at cycle  12 NSaved=  12.
 NSaved=12 IEnMin=12 EnMin= -649.189818232737     IErMin=12 ErrMin= 1.81D-08
 ErrMax= 1.81D-08  0.00D+00 EMaxC= 1.00D-01 BMatC= 2.19D-14 BMatP= 4.27D-13
 IDIUse=1 WtCom= 1.00D+00 WtEn= 0.00D+00
 Coeff-Com: -0.145D-05 0.185D-05 0.681D-05-0.172D-04 0.161D-03 0.120D-03
 Coeff-Com:  0.990D-03-0.236D-02-0.199D-01-0.159D-01 0.173D+00 0.864D+00
 Coeff:     -0.145D-05 0.185D-05 0.681D-05-0.172D-04 0.161D-03 0.120D-03
 Coeff:      0.990D-03-0.236D-02-0.199D-01-0.159D-01 0.173D+00 0.864D+00
 Gap=     0.051 Goal=   None    Shift=    0.000
 RMSDP=1.25D-08 MaxDP=3.32D-07 DE=-1.02D-12 OVMax= 7.55D-07

 Cycle  13  Pass 1  IDiag  1:
 E= -649.189818232739     Delta-E=       -0.000000000003 Rises=F Damp=F
 DIIS: error= 3.54D-09 at cycle  13 NSaved=  13.
 NSaved=13 IEnMin=13 EnMin= -649.189818232739     IErMin=13 ErrMin= 3.54D-09
 ErrMax= 3.54D-09  0.00D+00 EMaxC= 1.00D-01 BMatC= 1.52D-15 BMatP= 2.19D-14
 IDIUse=1 WtCom= 1.00D+00 WtEn= 0.00D+00
 Coeff-Com:  0.204D-06-0.282D-06-0.102D-05-0.607D-06 0.187D-05-0.208D-04
 Coeff-Com:  0.272D-03 0.263D-03-0.920D-03-0.104D-01-0.204D-02 0.244D+00
 Coeff-Com:  0.769D+00
 Coeff:      0.204D-06-0.282D-06-0.102D-05-0.607D-06 0.187D-05-0.208D-04
 Coeff:      0.272D-03 0.263D-03-0.920D-03-0.104D-01-0.204D-02 0.244D+00
 Coeff:      0.769D+00
 Gap=     0.051 Goal=   None    Shift=    0.000
 RMSDP=3.41D-09 MaxDP=8.18D-08 DE=-2.61D-12 OVMax= 1.48D-07

 SCF Done:  E(RB3LYP) =  -649.189818233     A.U. after   13 cycles
            NFock= 13  Conv=0.34D-08     -V/T= 2.0027
 KE= 6.474394166408D+02 PE=-1.766743668316D+03 EE= 3.664058093980D+02
 Leave Link  502 at Mon Aug 28 10:18:08 2023, MaxMem=  1610612736 cpu:              20.4 elap:               1.5
 (Enter /home/sekinelabo/g16/l601.exe)
 Copying SCF densities to generalized density rwf, IOpCl= 0 IROHF=0.

 **********************************************************************

            Population analysis using the SCF Density.

 **********************************************************************

 Orbital symmetries:
       Occupied  (A) (A) (A) (A) (A) (A) (A) (A) (A) (A) (A) (A)
                 (A) (A) (A) (A) (A) (A) (A) (A) (A) (A)
       Virtual   (A) (A) (A) (A) (A) (A) (A) (A) (A) (A) (A) (A)
                 (A) (A) (A) (A) (A) (A) (A) (A) (A) (A) (A) (A)
                 (A) (A) (A) (A) (A) (A) (A) (A) (A) (A) (A) (A)
                 (A) (A) (A) (A) (A) (A) (A) (A) (A) (A) (A) (A)
                 (A) (A) (A) (A) (A) (A) (A) (A) (A) (A) (A) (A)
                 (A) (A) (A) (A) (A) (A) (A) (A) (A) (A) (A) (A)
                 (A) (A) (A) (A) (A) (A) (A) (A) (A) (A) (A) (A)
                 (A) (A) (A) (A) (A) (A) (A) (A) (A) (A) (A) (A)
                 (A) (A)
 The electronic state is 1-A.
 Alpha  occ. eigenvalues --  -38.45992 -38.44848 -38.44414 -38.43227  -2.21974
 Alpha  occ. eigenvalues --   -2.20773  -2.20263  -2.18958  -1.15952  -1.15619
 Alpha  occ. eigenvalues --   -1.15556  -1.14406  -1.14360  -1.14351  -1.13995
 Alpha  occ. eigenvalues --   -1.13938  -1.13831  -1.12636  -1.12635  -1.12581
 Alpha  occ. eigenvalues --   -0.16371  -0.11054
 Alpha virt. eigenvalues --   -0.05994  -0.05604  -0.03864  -0.02098  -0.01509
 Alpha virt. eigenvalues --   -0.00899  -0.00715   0.00237   0.00387   0.00569
 Alpha virt. eigenvalues --    0.00742   0.00919   0.00975   0.01286   0.01521
 Alpha virt. eigenvalues --    0.01762   0.01826   0.01934   0.02051   0.02383
 Alpha virt. eigenvalues --    0.02472   0.02545   0.02714   0.03006   0.03210
 Alpha virt. eigenvalues --    0.03282   0.03822   0.04248   0.04956   0.05129
 Alpha virt. eigenvalues --    0.06314   0.06591   0.07366   0.08034   0.08321
 Alpha virt. eigenvalues --    0.08848   0.08889   0.09617   0.09917   0.10305
 Alpha virt. eigenvalues --    0.10987   0.11677   0.12041   0.13909   0.14368
 Alpha virt. eigenvalues --    0.16496   0.25684   0.27155   0.29138   0.30533
 Alpha virt. eigenvalues --    0.31827   0.33058   0.33857   0.35366   0.36553
 Alpha virt. eigenvalues --    0.36833   0.38053   0.38504   0.41338   0.42148
 Alpha virt. eigenvalues --    0.42532   0.42897   0.43674   0.43907   0.44767
 Alpha virt. eigenvalues --    0.44882   0.45302   0.45712   0.47077   0.48888
 Alpha virt. eigenvalues --    0.49625   0.51145   0.53287   0.53865   0.55708
 Alpha virt. eigenvalues --    0.56489   0.73821   0.88566   2.04054   2.08241
 Alpha virt. eigenvalues --    2.10294   2.17943   4.40842   4.41881   4.44824
 Alpha virt. eigenvalues --    4.45631   4.45837   4.45950   4.46300   4.47384
 Alpha virt. eigenvalues --    4.47652   4.49847   4.66970   4.81010  96.23598
 Alpha virt. eigenvalues --   96.31016  96.31174  96.41550
          Condensed to atoms (all electrons):
               1          2          3          4
     1  Na  10.615294   0.230976   0.257832  -0.058800
     2  Na   0.230976  10.653103  -0.065122  -0.104250
     3  Na   0.257832  -0.065122  10.802550   0.261824
     4  Na  -0.058800  -0.104250   0.261824  10.884132
 Mulliken charges:
               1
     1  Na  -0.045303
     2  Na   0.285294
     3  Na  -0.257084
     4  Na   0.017093
 Sum of Mulliken charges =   0.00000
 Mulliken charges with hydrogens summed into heavy atoms:
               1
     1  Na  -0.045303
     2  Na   0.285294
     3  Na  -0.257084
     4  Na   0.017093
 Electronic spatial extent (au):  <R**2>=           1220.7864
 Charge=              0.0000 electrons
 Dipole moment (field-independent basis, Debye):
    X=              1.9424    Y=              0.2060    Z=              0.0623  Tot=              1.9543
 Quadrupole moment (field-independent basis, Debye-Ang):
   XX=            -41.5941   YY=            -34.9394   ZZ=            -42.2386
   XY=             -4.0773   XZ=             -0.1409   YZ=             -0.7060
 Traceless Quadrupole moment (field-independent basis, Debye-Ang):
   XX=             -2.0034   YY=              4.6513   ZZ=             -2.6479
   XY=             -4.0773   XZ=             -0.1409   YZ=             -0.7060
 Octapole moment (field-independent basis, Debye-Ang**2):
  XXX=              2.0472  YYY=              3.9852  ZZZ=             -1.0093  XYY=             14.2767
  XXY=             -1.6791  XXZ=             14.0493  XZZ=              9.7921  YZZ=              0.0398
  YYZ=             -3.8845  XYZ=             -3.9908
 Hexadecapole moment (field-independent basis, Debye-Ang**3):
 XXXX=          -1642.8971 YYYY=           -293.0053 ZZZZ=           -202.1608 XXXY=            -92.5480
 XXXZ=             -3.6031 YYYX=            -11.9644 YYYZ=             -4.1267 ZZZX=             -0.7689
 ZZZY=             -3.4518 XXYY=           -368.6634 XXZZ=           -344.5088 YYZZ=            -83.4692
 XXYZ=             -7.3788 YYXZ=             -2.4152 ZZXY=             -6.6570
 N-N= 1.037086240439D+02 E-N=-1.766743668961D+03  KE= 6.474394166408D+02
 No NMR shielding tensors so no spin-rotation constants.
 Leave Link  601 at Mon Aug 28 10:18:08 2023, MaxMem=  1610612736 cpu:               0.9 elap:               0.1
 (Enter /home/sekinelabo/g16/l701.exe)
 ... and contract with generalized density number  0.
 Compute integral first derivatives.
 Leave Link  701 at Mon Aug 28 10:18:08 2023, MaxMem=  1610612736 cpu:               1.3 elap:               0.1
 (Enter /home/sekinelabo/g16/l702.exe)
 L702 exits ... SP integral derivatives will be done elsewhere.
 Leave Link  702 at Mon Aug 28 10:18:08 2023, MaxMem=  1610612736 cpu:               0.3 elap:               0.0
 (Enter /home/sekinelabo/g16/l703.exe)
 Integral derivatives from FoFJK, PRISM(SPDF).
 Compute integral first derivatives, UseDBF=F ICtDFT=           0.
 Calling FoFJK, ICntrl=      2127 FMM=F ISym2X=0 I1Cent= 0 IOpClX= 0 NMat=1 NMatS=1 NMatT=0.
 FoFJK:  IHMeth= 1 ICntrl=    2127 DoSepK=F KAlg= 0 I1Cent=           0 FoldK=F
 IRaf=         0 NMat=       1 IRICut=       1 DoRegI=T DoRafI=F ISym2E= 0 IDoP0=0 IntGTp=1.
 FoFCou: FMM=F IPFlag=           0 FMFlag=      100000 FMFlg1=         800
         NFxFlg=           0 DoJE=F BraDBF=F KetDBF=F FulRan=T
         wScrn=  0.000000 ICntrl=      2127 IOpCl=  0 I1Cent=           0 NGrid=           0
         NMat0=    1 NMatS0=      1 NMatT0=    0 NMatD0=    1 NMtDS0=    0 NMtDT0=    0
 Symmetry not used in FoFCou.
 Leave Link  703 at Mon Aug 28 10:18:09 2023, MaxMem=  1610612736 cpu:               6.4 elap:               0.4
 (Enter /home/sekinelabo/g16/l716.exe)
 Dipole        = 7.64197456D-01 8.10361713D-02 2.45107261D-02
 ***** Axes restored to original set *****
 -------------------------------------------------------------------
 Center     Atomic                   Forces (Hartrees/Bohr)
 Number     Number              X              Y              Z
 -------------------------------------------------------------------
      1       11           0.020075269   -0.000688968   -0.008807829
      2       11          -0.021243277    0.000675681    0.001480319
      3       11           0.006275233   -0.003520818    0.008725267
      4       11          -0.005107225    0.003534105   -0.001397757
 -------------------------------------------------------------------
 Cartesian Forces:  Max     0.021243277 RMS     0.009589169
 Z-matrix is all fixed cartesians, so copy forces.
 Force constants in Cartesian coordinates: 
                1             2             3             4             5 
      1  0.105554D+00
      2 -0.347875D-02  0.330336D-02
      3 -0.193077D-01  0.000000D+00  0.637320D-01
      4 -0.905544D-01 -0.178373D-03  0.452529D-02  0.103296D+00
      5  0.798669D-04  0.232854D-03  0.000000D+00 -0.202019D-02  0.392092D-02
      6  0.247773D-01  0.173616D-03 -0.181909D-01 -0.378766D-02  0.196632D-02
      7 -0.158445D-01  0.405909D-02  0.147825D-01 -0.123911D-01  0.107141D-02
      8  0.382429D-02 -0.409260D-02  0.000000D+00  0.358736D-02 -0.680690D-02
      9 -0.159017D-03 -0.371167D-02 -0.455411D-01  0.153062D-02 -0.533014D-02
     10  0.844667D-03 -0.401975D-03  0.000000D+00 -0.350189D-03  0.868914D-03
     11 -0.425415D-03  0.556392D-03  0.000000D+00 -0.138880D-02  0.265312D-02
     12 -0.531051D-02  0.353806D-02  0.000000D+00 -0.226825D-02  0.336383D-02
                6             7             8             9            10 
      6  0.281364D-01
      7 -0.213305D-01  0.386770D-01
      8 -0.349169D-02 -0.120874D-01  0.192901D-01
      9 -0.121532D-01  0.826821D-03  0.119742D-01  0.687681D-01
     10  0.340849D-03 -0.104414D-01  0.467574D-02 -0.219843D-02  0.994689D-02
     11  0.135176D-02  0.695689D-02 -0.839063D-02 -0.293237D-02 -0.514268D-02
     12  0.220776D-02  0.572118D-02 -0.848250D-02 -0.110738D-01  0.185758D-02
               11            12 
     11  0.518112D-02
     12  0.158062D-02  0.886609D-02
 Leave Link  716 at Mon Aug 28 10:18:09 2023, MaxMem=  1610612736 cpu:               0.3 elap:               0.0
 (Enter /home/sekinelabo/g16/l103.exe)

 GradGradGradGradGradGradGradGradGradGradGradGradGradGradGradGradGradGrad
 Berny optimization.
 Search for a local minimum.
 Step number   1 out of a maximum of    2
 All quantities printed in internal units (Hartrees-Bohrs-Radians)
 Second derivative matrix not updated -- first step.
 The second derivative matrix:
                          X1        Y1        Z1        X2        Y2
           X1           0.10555
           Y1          -0.00348   0.00330
           Z1          -0.01931  -0.00000   0.06373
           X2          -0.09055  -0.00018   0.00453   0.10330
           Y2           0.00008   0.00023   0.00000  -0.00202   0.00392
           Z2           0.02478   0.00017  -0.01819  -0.00379   0.00197
           X3          -0.01584   0.00406   0.01478  -0.01239   0.00107
           Y3           0.00382  -0.00409   0.00000   0.00359  -0.00681
           Z3          -0.00016  -0.00371  -0.04554   0.00153  -0.00533
           X4           0.00084  -0.00040   0.00000  -0.00035   0.00087
           Y4          -0.00043   0.00056  -0.00000  -0.00139   0.00265
           Z4          -0.00531   0.00354  -0.00000  -0.00227   0.00336
                          Z2        X3        Y3        Z3        X4
           Z2           0.02814
           X3          -0.02133   0.03868
           Y3          -0.00349  -0.01209   0.01929
           Z3          -0.01215   0.00083   0.01197   0.06877
           X4           0.00034  -0.01044   0.00468  -0.00220   0.00995
           Y4           0.00135   0.00696  -0.00839  -0.00293  -0.00514
           Z4           0.00221   0.00572  -0.00848  -0.01107   0.00186
                          Y4        Z4
           Y4           0.00518
           Z4           0.00158   0.00887
 ITU=  0
     Eigenvalues ---    0.00651   0.01567   0.04384   0.07317   0.11594
     Eigenvalues ---    0.20076
 Quadratic step=4.158D-01 exceeds max=3.000D-01 adjusted using Lamda=-9.258D-03.
 Angle between NR and scaled steps=  13.19 degrees.
 Angle between quadratic step and forces=  41.13 degrees.
 Linear search not attempted -- first point.
 B after Tr=     0.000000   -0.000000    0.000000
         Rot=    1.000000   -0.000000   -0.000000    0.000000 Ang=   0.00 deg.
 Variable       Old X    -DE/DX   Delta X   Delta X   Delta X     New X
                                 (Linear)    (Quad)   (Total)
    X1       -0.00000   0.02008   0.00000   0.11839   0.11839   0.11839
    Y1        0.00000  -0.00069   0.00000  -0.03881  -0.03881  -0.03881
    Z1        0.00000  -0.00881   0.00000  -0.04333  -0.04333  -0.04333
    X2       -4.71294  -0.02124   0.00000  -0.07782  -0.07782  -4.79076
    Y2       -0.00000   0.00068   0.00000   0.02352   0.02352   0.02352
    Z2        0.73312   0.00148   0.00000   0.01494   0.01494   0.74807
    X3       -0.00000   0.00628   0.00000   0.10735   0.10735   0.10735
    Y3        0.00000  -0.00352   0.00000  -0.09016  -0.09016  -0.09016
    Z3        5.57519   0.00873   0.00000   0.09406   0.09406   5.66925
    X4        6.04981  -0.00511   0.00000  -0.14792  -0.14792   5.90190
    Y4       -3.56329   0.00353   0.00000   0.10544   0.10544  -3.45784
    Z4        6.82290  -0.00140   0.00000  -0.06568  -0.06568   6.75722
         Item               Value     Threshold  Converged?
 Maximum Force            0.021243     0.000450     NO 
 RMS     Force            0.009589     0.000300     NO 
 Maximum Displacement     0.147917     0.001800     NO 
 RMS     Displacement     0.086623     0.001200     NO 
 Predicted change in Energy=-4.170800D-03
 GradGradGradGradGradGradGradGradGradGradGradGradGradGradGradGradGradGrad

 Leave Link  103 at Mon Aug 28 10:18:09 2023, MaxMem=  1610612736 cpu:               0.2 elap:               0.0
 (Enter /home/sekinelabo/g16/l9999.exe)
 1\1\GINC-SEKINELABO-XA7R-R37\Force\RB3LYP\6-311+G(d)\Na4\SEKINELABO\28
 -Aug-2023\0\\#p B3LYP/6-311+g(d) force\\\0,1\Na,0.,0.,0.\Na,-2.4939780
 534,0.,0.3879519696\Na,0.,0.,2.9502644206\Na,3.201423692,-1.8856102545
 ,3.6105217055\\Version=ES64L-G16RevB.01\State=1-A\HF=-649.1898182\RMSD
 =3.409e-09\RMSF=9.589e-03\Dipole=-0.5639846,0.1843077,-0.4889964\Quadr
 upole=2.5095707,-1.6431061,-0.8664646,-1.1769367,-3.4467363,0.6024114\
 PG=C01 [X(Na4)]\\@


 The theorems and results in mathematical physics are
 not theorems and results about Nature, but about our
 description of it.
                   --Gerard 't Hooft
 Job cpu time:       0 days  0 hours  0 minutes 36.9 seconds.
 Elapsed time:       0 days  0 hours  0 minutes  2.5 seconds.
 File lengths (MBytes):  RWF=     10 Int=      0 D2E=      0 Chk=      2 Scr=      1
 Normal termination of Gaussian 16 at Mon Aug 28 10:18:09 2023.
