 Initial command:
 /home/sekinelabo/g16/l1.exe "/home/sekinelabo/g16temp/Gau-19052.inp" -scrdir="/home/sekinelabo/g16temp/"
 Entering Link 1 = /home/sekinelabo/g16/l1.exe PID=     19816.
  
 Copyright (c) 1988-2017, Gaussian, Inc.  All Rights Reserved.
  
 This is part of the Gaussian(R) 16 program.  It is based on
 the Gaussian(R) 09 system (copyright 2009, Gaussian, Inc.),
 the Gaussian(R) 03 system (copyright 2003, Gaussian, Inc.),
 the Gaussian(R) 98 system (copyright 1998, Gaussian, Inc.),
 the Gaussian(R) 94 system (copyright 1995, Gaussian, Inc.),
 the Gaussian 92(TM) system (copyright 1992, Gaussian, Inc.),
 the Gaussian 90(TM) system (copyright 1990, Gaussian, Inc.),
 the Gaussian 88(TM) system (copyright 1988, Gaussian, Inc.),
 the Gaussian 86(TM) system (copyright 1986, Carnegie Mellon
 University), and the Gaussian 82(TM) system (copyright 1983,
 Carnegie Mellon University). Gaussian is a federally registered
 trademark of Gaussian, Inc.
  
 This software contains proprietary and confidential information,
 including trade secrets, belonging to Gaussian, Inc.
  
 This software is provided under written license and may be
 used, copied, transmitted, or stored only in accord with that
 written license.
  
 The following legend is applicable only to US Government
 contracts under FAR:
  
                    RESTRICTED RIGHTS LEGEND
  
 Use, reproduction and disclosure by the US Government is
 subject to restrictions as set forth in subparagraphs (a)
 and (c) of the Commercial Computer Software - Restricted
 Rights clause in FAR 52.227-19.
  
 Gaussian, Inc.
 340 Quinnipiac St., Bldg. 40, Wallingford CT 06492
  
  
 ---------------------------------------------------------------
 Warning -- This program may not be used in any manner that
 competes with the business of Gaussian, Inc. or will provide
 assistance to any competitor of Gaussian, Inc.  The licensee
 of this program is prohibited from giving any competitor of
 Gaussian, Inc. access to this program.  By using this program,
 the user acknowledges that Gaussian, Inc. is engaged in the
 business of creating and licensing software in the field of
 computational chemistry and represents and warrants to the
 licensee that it is not a competitor of Gaussian, Inc. and that
 it will not use this program in any manner prohibited above.
 ---------------------------------------------------------------
  

 Cite this work as:
 Gaussian 16, Revision B.01,
 M. J. Frisch, G. W. Trucks, H. B. Schlegel, G. E. Scuseria, 
 M. A. Robb, J. R. Cheeseman, G. Scalmani, V. Barone, 
 G. A. Petersson, H. Nakatsuji, X. Li, M. Caricato, A. V. Marenich, 
 J. Bloino, B. G. Janesko, R. Gomperts, B. Mennucci, H. P. Hratchian, 
 J. V. Ortiz, A. F. Izmaylov, J. L. Sonnenberg, D. Williams-Young, 
 F. Ding, F. Lipparini, F. Egidi, J. Goings, B. Peng, A. Petrone, 
 T. Henderson, D. Ranasinghe, V. G. Zakrzewski, J. Gao, N. Rega, 
 G. Zheng, W. Liang, M. Hada, M. Ehara, K. Toyota, R. Fukuda, 
 J. Hasegawa, M. Ishida, T. Nakajima, Y. Honda, O. Kitao, H. Nakai, 
 T. Vreven, K. Throssell, J. A. Montgomery, Jr., J. E. Peralta, 
 F. Ogliaro, M. J. Bearpark, J. J. Heyd, E. N. Brothers, K. N. Kudin, 
 V. N. Staroverov, T. A. Keith, R. Kobayashi, J. Normand, 
 K. Raghavachari, A. P. Rendell, J. C. Burant, S. S. Iyengar, 
 J. Tomasi, M. Cossi, J. M. Millam, M. Klene, C. Adamo, R. Cammi, 
 J. W. Ochterski, R. L. Martin, K. Morokuma, O. Farkas, 
 J. B. Foresman, and D. J. Fox, Gaussian, Inc., Wallingford CT, 2016.
 
 ******************************************
 Gaussian 16:  ES64L-G16RevB.01 20-Dec-2017
                 8-Aug-2023 
 ******************************************
 %NProcShared=16
 Will use up to   16 processors via shared memory.
 %mem=12GB
 %Chk=checkpoint.chk
 -------------------------
 #p B3LYP/6-311+g(d) force
 -------------------------
 1/10=7,30=1,38=1/1,3;
 2/12=2,17=6,18=5,40=1/2;
 3/5=4,6=6,7=11,11=2,25=1,30=1,71=1,74=-5/1,2,3;
 4//1;
 5/5=2,38=5/2;
 6/7=2,8=2,9=2,10=2,28=1/1;
 7/29=1/1,2,3,16;
 1/10=7,30=1/3;
 99//99;
 Leave Link    1 at Tue Aug  8 11:07:13 2023, MaxMem=  1610612736 cpu:               0.2 elap:               0.0
 (Enter /home/sekinelabo/g16/l101.exe)
 ----
 Test
 ----
 Symbolic Z-matrix:
 Charge =  0 Multiplicity = 1
 Na                    0.        0.        0. 
 Na                   -2.60885   0.       -2.77708 
 Na                    0.        0.        5.07872 
 Na                    1.96157  -1.46976   4.38341 
 
 ITRead=  0  0  0  0
 MicOpt= -1 -1 -1 -1
 NAtoms=      4 NQM=        4 NQMF=       0 NMMI=      0 NMMIF=      0
                NMic=       0 NMicF=      0.
                    Isotopes and Nuclear Properties:
 (Nuclear quadrupole moments (NQMom) in fm**2, nuclear magnetic moments (NMagM)
  in nuclear magnetons)

  Atom         1           2           3           4
 IAtWgt=          23          23          23          23
 AtmWgt=  22.9897697  22.9897697  22.9897697  22.9897697
 NucSpn=           3           3           3           3
 AtZEff=  -0.0000000  -0.0000000  -0.0000000  -0.0000000
 NQMom=   10.4000000  10.4000000  10.4000000  10.4000000
 NMagM=    2.2175200   2.2175200   2.2175200   2.2175200
 AtZNuc=  11.0000000  11.0000000  11.0000000  11.0000000
 Leave Link  101 at Tue Aug  8 11:07:13 2023, MaxMem=  1610612736 cpu:               1.5 elap:               0.1
 (Enter /home/sekinelabo/g16/l103.exe)

 GradGradGradGradGradGradGradGradGradGradGradGradGradGradGradGradGradGrad
 Berny optimization.
 Initialization pass.
 Trust Radius=3.00D-01 FncErr=1.00D-07 GrdErr=1.00D-07 EigMax=2.50D+02 EigMin=1.00D-04
 Number of steps in this run=      2 maximum allowed number of steps=      2.
 GradGradGradGradGradGradGradGradGradGradGradGradGradGradGradGradGradGrad

 Leave Link  103 at Tue Aug  8 11:07:13 2023, MaxMem=  1610612736 cpu:               0.1 elap:               0.0
 (Enter /home/sekinelabo/g16/l202.exe)
                          Input orientation:                          
 ---------------------------------------------------------------------
 Center     Atomic      Atomic             Coordinates (Angstroms)
 Number     Number       Type             X           Y           Z
 ---------------------------------------------------------------------
      1         11           0        0.000000    0.000000    0.000000
      2         11           0       -2.608849    0.000000   -2.777077
      3         11           0        0.000000    0.000000    5.078723
      4         11           0        1.961570   -1.469763    4.383414
 ---------------------------------------------------------------------
                    Distance matrix (angstroms):
                    1          2          3          4
     1  Na   0.000000
     2  Na   3.810283   0.000000
     3  Na   5.078723   8.277663   0.000000
     4  Na   5.022178   8.620996   2.547826   0.000000
 Stoichiometry    Na4
 Framework group  C1[X(Na4)]
 Deg. of freedom     6
 Full point group                 C1      NOp   1
 Largest Abelian subgroup         C1      NOp   1
 Largest concise Abelian subgroup C1      NOp   1
                         Standard orientation:                         
 ---------------------------------------------------------------------
 Center     Atomic      Atomic             Coordinates (Angstroms)
 Number     Number       Type             X           Y           Z
 ---------------------------------------------------------------------
      1         11           0        1.492002   -0.649796    0.553190
      2         11           0        5.069537    0.325245   -0.323619
      3         11           0       -3.126405    1.410718    0.086253
      4         11           0       -3.435134   -1.086167   -0.315824
 ---------------------------------------------------------------------
 Rotational constants (GHZ):           5.2143325           0.4394907           0.4132200
 Leave Link  202 at Tue Aug  8 11:07:13 2023, MaxMem=  1610612736 cpu:               0.0 elap:               0.0
 (Enter /home/sekinelabo/g16/l301.exe)
 Standard basis: 6-311+G(d) (5D, 7F)
 Ernie: Thresh=  0.10000D-02 Tol=  0.10000D-05 Strict=F.
 There are   124 symmetry adapted cartesian basis functions of A   symmetry.
 There are   120 symmetry adapted basis functions of A   symmetry.
   120 basis functions,   200 primitive gaussians,   124 cartesian basis functions
    22 alpha electrons       22 beta electrons
       nuclear repulsion energy        82.4557688374 Hartrees.
 IExCor=  402 DFT=T Ex+Corr=B3LYP ExCW=0 ScaHFX=  0.200000
 ScaDFX=  0.800000  0.720000  1.000000  0.810000 ScalE2=  1.000000  1.000000
 IRadAn=      5 IRanWt=     -1 IRanGd=            0 ICorTp=0 IEmpDi=  4
 NAtoms=    4 NActive=    4 NUniq=    4 SFac= 1.00D+00 NAtFMM=   60 NAOKFM=F Big=F
 Integral buffers will be    131072 words long.
 Raffenetti 2 integral format.
 Two-electron integral symmetry is turned on.
 Leave Link  301 at Tue Aug  8 11:07:13 2023, MaxMem=  1610612736 cpu:               0.4 elap:               0.0
 (Enter /home/sekinelabo/g16/l302.exe)
 NPDir=0 NMtPBC=     1 NCelOv=     1 NCel=       1 NClECP=     1 NCelD=      1
         NCelK=      1 NCelE2=     1 NClLst=     1 CellRange=     0.0.
 One-electron integrals computed using PRISM.
 One-electron integral symmetry used in STVInt
 NBasis=   120 RedAO= T EigKep=  3.57D-05  NBF=   120
 NBsUse=   120 1.00D-06 EigRej= -1.00D+00 NBFU=   120
 Precomputing XC quadrature grid using
 IXCGrd= 4 IRadAn=           5 IRanWt=          -1 IRanGd=           0 AccXCQ= 0.00D+00.
 Generated NRdTot=       0 NPtTot=           0 NUsed=           0 NTot=          32
 NSgBfM=   116   116   116   116   116 MxSgAt=     4 MxSgA2=     4.
 Leave Link  302 at Tue Aug  8 11:07:13 2023, MaxMem=  1610612736 cpu:               1.3 elap:               0.1
 (Enter /home/sekinelabo/g16/l303.exe)
 DipDrv:  MaxL=1.
 Leave Link  303 at Tue Aug  8 11:07:13 2023, MaxMem=  1610612736 cpu:               0.3 elap:               0.0
 (Enter /home/sekinelabo/g16/l401.exe)
 ExpMin= 7.60D-03 ExpMax= 3.62D+04 ExpMxC= 1.21D+03 IAcc=3 IRadAn=         5 AccDes= 0.00D+00
 Harris functional with IExCor=  402 and IRadAn=       5 diagonalized for initial guess.
 HarFok:  IExCor=  402 AccDes= 0.00D+00 IRadAn=         5 IDoV= 1 UseB2=F ITyADJ=14
 ICtDFT=  3500011 ScaDFX=  1.000000  1.000000  1.000000  1.000000
 FoFCou: FMM=F IPFlag=           0 FMFlag=      100000 FMFlg1=           0
         NFxFlg=           0 DoJE=T BraDBF=F KetDBF=T FulRan=T
         wScrn=  0.000000 ICntrl=       500 IOpCl=  0 I1Cent=   200000004 NGrid=           0
         NMat0=    1 NMatS0=      1 NMatT0=    0 NMatD0=    1 NMtDS0=    0 NMtDT0=    0
 Petite list used in FoFCou.
 Harris En= -649.061566232826    
 JPrj=0 DoOrth=F DoCkMO=F.
 Leave Link  401 at Tue Aug  8 11:07:13 2023, MaxMem=  1610612736 cpu:               2.0 elap:               0.1
 (Enter /home/sekinelabo/g16/l502.exe)
 Keep R1 ints in memory in canonical form, NReq=41581754.
 FoFCou: FMM=F IPFlag=           0 FMFlag=           0 FMFlg1=           0
         NFxFlg=           0 DoJE=F BraDBF=F KetDBF=F FulRan=T
         wScrn=  0.000000 ICntrl=       600 IOpCl=  0 I1Cent=           0 NGrid=           0
         NMat0=    1 NMatS0=   7260 NMatT0=    0 NMatD0=    1 NMtDS0=    0 NMtDT0=    0
 Symmetry not used in FoFCou.
 Two-electron integral symmetry not used.
 Closed shell SCF:
 Using DIIS extrapolation, IDIIS=  1040.
 NGot=  1610612736 LenX=  1584221388 LenY=  1584205571
 Requested convergence on RMS density matrix=1.00D-08 within 128 cycles.
 Requested convergence on MAX density matrix=1.00D-06.
 Requested convergence on             energy=1.00D-06.
 No special actions if energy rises.

 Cycle   1  Pass 1  IDiag  1:
 E= -649.176762480361    
 DIIS: error= 1.59D-02 at cycle   1 NSaved=   1.
 NSaved= 1 IEnMin= 1 EnMin= -649.176762480361     IErMin= 1 ErrMin= 1.59D-02
 ErrMax= 1.59D-02  0.00D+00 EMaxC= 1.00D-01 BMatC= 2.63D-02 BMatP= 2.63D-02
 IDIUse=3 WtCom= 8.41D-01 WtEn= 1.59D-01
 Coeff-Com:  0.100D+01
 Coeff-En:   0.100D+01
 Coeff:      0.100D+01
 Gap=     0.052 Goal=   None    Shift=    0.000
 GapD=    0.052 DampG=0.500 DampE=0.500 DampFc=0.2500 IDamp=-1.
 Damping current iteration by 2.50D-01
 RMSDP=2.31D-03 MaxDP=5.66D-02              OVMax= 7.69D-02

 Cycle   2  Pass 1  IDiag  1:
 E= -649.180810443202     Delta-E=       -0.004047962841 Rises=F Damp=T
 DIIS: error= 1.12D-02 at cycle   2 NSaved=   2.
 NSaved= 2 IEnMin= 2 EnMin= -649.180810443202     IErMin= 2 ErrMin= 1.12D-02
 ErrMax= 1.12D-02  0.00D+00 EMaxC= 1.00D-01 BMatC= 1.02D-02 BMatP= 2.63D-02
 IDIUse=3 WtCom= 8.88D-01 WtEn= 1.12D-01
 Coeff-Com: -0.132D+01 0.232D+01
 Coeff-En:   0.000D+00 0.100D+01
 Coeff:     -0.117D+01 0.217D+01
 Gap=     0.054 Goal=   None    Shift=    0.000
 RMSDP=1.70D-03 MaxDP=4.56D-02 DE=-4.05D-03 OVMax= 2.52D-02

 Cycle   3  Pass 1  IDiag  1:
 E= -649.189363953119     Delta-E=       -0.008553509916 Rises=F Damp=F
 DIIS: error= 3.48D-04 at cycle   3 NSaved=   3.
 NSaved= 3 IEnMin= 3 EnMin= -649.189363953119     IErMin= 3 ErrMin= 3.48D-04
 ErrMax= 3.48D-04  0.00D+00 EMaxC= 1.00D-01 BMatC= 1.67D-05 BMatP= 1.02D-02
 IDIUse=3 WtCom= 9.97D-01 WtEn= 3.48D-03
 Coeff-Com:  0.547D-01-0.680D-01 0.101D+01
 Coeff-En:   0.000D+00 0.000D+00 0.100D+01
 Coeff:      0.545D-01-0.677D-01 0.101D+01
 Gap=     0.055 Goal=   None    Shift=    0.000
 RMSDP=2.36D-04 MaxDP=1.33D-02 DE=-8.55D-03 OVMax= 2.02D-02

 Cycle   4  Pass 1  IDiag  1:
 E= -649.189346890042     Delta-E=        0.000017063077 Rises=F Damp=F
 DIIS: error= 4.37D-04 at cycle   4 NSaved=   4.
 NSaved= 4 IEnMin= 3 EnMin= -649.189363953119     IErMin= 3 ErrMin= 3.48D-04
 ErrMax= 4.37D-04  0.00D+00 EMaxC= 1.00D-01 BMatC= 1.18D-05 BMatP= 1.67D-05
 IDIUse=3 WtCom= 9.96D-01 WtEn= 4.37D-03
 Coeff-Com:  0.339D-01-0.442D-01 0.530D+00 0.481D+00
 Coeff-En:   0.000D+00 0.000D+00 0.591D+00 0.409D+00
 Coeff:      0.337D-01-0.440D-01 0.530D+00 0.480D+00
 Gap=     0.055 Goal=   None    Shift=    0.000
 RMSDP=1.90D-04 MaxDP=1.09D-02 DE= 1.71D-05 OVMax= 1.59D-02

 Cycle   5  Pass 1  IDiag  1:
 E= -649.189399582628     Delta-E=       -0.000052692586 Rises=F Damp=F
 DIIS: error= 1.18D-04 at cycle   5 NSaved=   5.
 NSaved= 5 IEnMin= 5 EnMin= -649.189399582628     IErMin= 5 ErrMin= 1.18D-04
 ErrMax= 1.18D-04  0.00D+00 EMaxC= 1.00D-01 BMatC= 1.22D-06 BMatP= 1.18D-05
 IDIUse=3 WtCom= 9.99D-01 WtEn= 1.18D-03
 Coeff-Com:  0.103D-01-0.142D-01 0.132D+00 0.259D+00 0.613D+00
 Coeff-En:   0.000D+00 0.000D+00 0.000D+00 0.832D-01 0.917D+00
 Coeff:      0.103D-01-0.142D-01 0.131D+00 0.259D+00 0.614D+00
 Gap=     0.055 Goal=   None    Shift=    0.000
 RMSDP=5.64D-05 MaxDP=2.80D-03 DE=-5.27D-05 OVMax= 4.22D-03

 Cycle   6  Pass 1  IDiag  1:
 E= -649.189405617515     Delta-E=       -0.000006034887 Rises=F Damp=F
 DIIS: error= 1.07D-05 at cycle   6 NSaved=   6.
 NSaved= 6 IEnMin= 6 EnMin= -649.189405617515     IErMin= 6 ErrMin= 1.07D-05
 ErrMax= 1.07D-05  0.00D+00 EMaxC= 1.00D-01 BMatC= 1.88D-08 BMatP= 1.22D-06
 IDIUse=1 WtCom= 1.00D+00 WtEn= 0.00D+00
 Coeff-Com:  0.808D-03-0.125D-02 0.196D-01 0.464D-01 0.155D+00 0.780D+00
 Coeff:      0.808D-03-0.125D-02 0.196D-01 0.464D-01 0.155D+00 0.780D+00
 Gap=     0.055 Goal=   None    Shift=    0.000
 RMSDP=4.51D-06 MaxDP=2.74D-04 DE=-6.03D-06 OVMax= 3.30D-04

 Cycle   7  Pass 1  IDiag  1:
 E= -649.189405655684     Delta-E=       -0.000000038169 Rises=F Damp=F
 DIIS: error= 2.37D-06 at cycle   7 NSaved=   7.
 NSaved= 7 IEnMin= 7 EnMin= -649.189405655684     IErMin= 7 ErrMin= 2.37D-06
 ErrMax= 2.37D-06  0.00D+00 EMaxC= 1.00D-01 BMatC= 2.05D-09 BMatP= 1.88D-08
 IDIUse=1 WtCom= 1.00D+00 WtEn= 0.00D+00
 Coeff-Com: -0.741D-03 0.955D-03-0.477D-02-0.868D-02-0.123D-01 0.253D+00
 Coeff-Com:  0.772D+00
 Coeff:     -0.741D-03 0.955D-03-0.477D-02-0.868D-02-0.123D-01 0.253D+00
 Coeff:      0.772D+00
 Gap=     0.055 Goal=   None    Shift=    0.000
 RMSDP=1.62D-06 MaxDP=5.08D-05 DE=-3.82D-08 OVMax= 7.16D-05

 Cycle   8  Pass 1  IDiag  1:
 E= -649.189405658353     Delta-E=       -0.000000002669 Rises=F Damp=F
 DIIS: error= 5.28D-07 at cycle   8 NSaved=   8.
 NSaved= 8 IEnMin= 8 EnMin= -649.189405658353     IErMin= 8 ErrMin= 5.28D-07
 ErrMax= 5.28D-07  0.00D+00 EMaxC= 1.00D-01 BMatC= 4.56D-11 BMatP= 2.05D-09
 IDIUse=1 WtCom= 1.00D+00 WtEn= 0.00D+00
 Coeff-Com:  0.183D-04-0.235D-04-0.826D-03-0.312D-02-0.998D-02-0.948D-02
 Coeff-Com:  0.767D-01 0.947D+00
 Coeff:      0.183D-04-0.235D-04-0.826D-03-0.312D-02-0.998D-02-0.948D-02
 Coeff:      0.767D-01 0.947D+00
 Gap=     0.055 Goal=   None    Shift=    0.000
 RMSDP=5.74D-07 MaxDP=1.66D-05 DE=-2.67D-09 OVMax= 1.51D-05

 Cycle   9  Pass 1  IDiag  1:
 E= -649.189405658460     Delta-E=       -0.000000000107 Rises=F Damp=F
 DIIS: error= 1.02D-07 at cycle   9 NSaved=   9.
 NSaved= 9 IEnMin= 9 EnMin= -649.189405658460     IErMin= 9 ErrMin= 1.02D-07
 ErrMax= 1.02D-07  0.00D+00 EMaxC= 1.00D-01 BMatC= 2.96D-12 BMatP= 4.56D-11
 IDIUse=1 WtCom= 1.00D+00 WtEn= 0.00D+00
 Coeff-Com:  0.364D-04-0.470D-04-0.918D-04-0.870D-03-0.272D-02-0.107D-01
 Coeff-Com: -0.545D-02 0.303D+00 0.717D+00
 Coeff:      0.364D-04-0.470D-04-0.918D-04-0.870D-03-0.272D-02-0.107D-01
 Coeff:     -0.545D-02 0.303D+00 0.717D+00
 Gap=     0.055 Goal=   None    Shift=    0.000
 RMSDP=8.35D-08 MaxDP=3.92D-06 DE=-1.07D-10 OVMax= 4.45D-06

 Cycle  10  Pass 1  IDiag  1:
 E= -649.189405658467     Delta-E=       -0.000000000007 Rises=F Damp=F
 DIIS: error= 2.28D-08 at cycle  10 NSaved=  10.
 NSaved=10 IEnMin=10 EnMin= -649.189405658467     IErMin=10 ErrMin= 2.28D-08
 ErrMax= 2.28D-08  0.00D+00 EMaxC= 1.00D-01 BMatC= 1.06D-13 BMatP= 2.96D-12
 IDIUse=1 WtCom= 1.00D+00 WtEn= 0.00D+00
 Coeff-Com:  0.104D-04-0.133D-04 0.300D-05-0.161D-03-0.491D-03-0.331D-02
 Coeff-Com: -0.463D-02 0.624D-01 0.225D+00 0.721D+00
 Coeff:      0.104D-04-0.133D-04 0.300D-05-0.161D-03-0.491D-03-0.331D-02
 Coeff:     -0.463D-02 0.624D-01 0.225D+00 0.721D+00
 Gap=     0.055 Goal=   None    Shift=    0.000
 RMSDP=1.25D-08 MaxDP=6.02D-07 DE=-6.93D-12 OVMax= 6.55D-07

 Cycle  11  Pass 1  IDiag  1:
 E= -649.189405658467     Delta-E=        0.000000000001 Rises=F Damp=F
 DIIS: error= 7.72D-09 at cycle  11 NSaved=  11.
 NSaved=11 IEnMin=10 EnMin= -649.189405658467     IErMin=11 ErrMin= 7.72D-09
 ErrMax= 7.72D-09  0.00D+00 EMaxC= 1.00D-01 BMatC= 1.33D-14 BMatP= 1.06D-13
 IDIUse=1 WtCom= 1.00D+00 WtEn= 0.00D+00
 Coeff-Com: -0.142D-05 0.188D-05 0.995D-05 0.433D-04 0.135D-03 0.103D-03
 Coeff-Com: -0.794D-03-0.130D-01-0.852D-02 0.256D+00 0.766D+00
 Coeff:     -0.142D-05 0.188D-05 0.995D-05 0.433D-04 0.135D-03 0.103D-03
 Coeff:     -0.794D-03-0.130D-01-0.852D-02 0.256D+00 0.766D+00
 Gap=     0.055 Goal=   None    Shift=    0.000
 RMSDP=5.48D-09 MaxDP=1.71D-07 DE= 5.68D-13 OVMax= 1.37D-07

 SCF Done:  E(RB3LYP) =  -649.189405658     A.U. after   11 cycles
            NFock= 11  Conv=0.55D-08     -V/T= 2.0028
 KE= 6.473574928412D+02 PE=-1.724129014680D+03 EE= 3.451263473425D+02
 Leave Link  502 at Tue Aug  8 11:07:14 2023, MaxMem=  1610612736 cpu:              17.2 elap:               1.2
 (Enter /home/sekinelabo/g16/l601.exe)
 Copying SCF densities to generalized density rwf, IOpCl= 0 IROHF=0.

 **********************************************************************

            Population analysis using the SCF Density.

 **********************************************************************

 Orbital symmetries:
       Occupied  (A) (A) (A) (A) (A) (A) (A) (A) (A) (A) (A) (A)
                 (A) (A) (A) (A) (A) (A) (A) (A) (A) (A)
       Virtual   (A) (A) (A) (A) (A) (A) (A) (A) (A) (A) (A) (A)
                 (A) (A) (A) (A) (A) (A) (A) (A) (A) (A) (A) (A)
                 (A) (A) (A) (A) (A) (A) (A) (A) (A) (A) (A) (A)
                 (A) (A) (A) (A) (A) (A) (A) (A) (A) (A) (A) (A)
                 (A) (A) (A) (A) (A) (A) (A) (A) (A) (A) (A) (A)
                 (A) (A) (A) (A) (A) (A) (A) (A) (A) (A) (A) (A)
                 (A) (A) (A) (A) (A) (A) (A) (A) (A) (A) (A) (A)
                 (A) (A) (A) (A) (A) (A) (A) (A) (A) (A) (A) (A)
                 (A) (A)
 The electronic state is 1-A.
 Alpha  occ. eigenvalues --  -38.45340 -38.45230 -38.44564 -38.44242  -2.21245
 Alpha  occ. eigenvalues --   -2.21082  -2.20269  -2.19956  -1.15461  -1.14843
 Alpha  occ. eigenvalues --   -1.14834  -1.14671  -1.14663  -1.14487  -1.13959
 Alpha  occ. eigenvalues --   -1.13953  -1.13874  -1.13634  -1.13634  -1.13573
 Alpha  occ. eigenvalues --   -0.14611  -0.11773
 Alpha virt. eigenvalues --   -0.06306  -0.05466  -0.03272  -0.02800  -0.01760
 Alpha virt. eigenvalues --   -0.01484  -0.00935  -0.00078   0.00319   0.00519
 Alpha virt. eigenvalues --    0.00634   0.00740   0.00811   0.01045   0.01200
 Alpha virt. eigenvalues --    0.01498   0.01651   0.01696   0.02002   0.02246
 Alpha virt. eigenvalues --    0.02305   0.02577   0.02658   0.02846   0.03016
 Alpha virt. eigenvalues --    0.03106   0.03240   0.03689   0.04554   0.04848
 Alpha virt. eigenvalues --    0.06776   0.06925   0.07449   0.07911   0.08243
 Alpha virt. eigenvalues --    0.08339   0.09006   0.09274   0.09719   0.09949
 Alpha virt. eigenvalues --    0.10206   0.10789   0.11281   0.11765   0.13989
 Alpha virt. eigenvalues --    0.16209   0.29309   0.29476   0.30038   0.30934
 Alpha virt. eigenvalues --    0.31984   0.32437   0.33351   0.33986   0.35109
 Alpha virt. eigenvalues --    0.35272   0.36477   0.36564   0.38982   0.39157
 Alpha virt. eigenvalues --    0.40501   0.40753   0.41965   0.42142   0.43385
 Alpha virt. eigenvalues --    0.43485   0.44192   0.44315   0.45003   0.45160
 Alpha virt. eigenvalues --    0.46323   0.46702   0.48215   0.50686   0.53259
 Alpha virt. eigenvalues --    0.54817   0.55129   0.87836   2.00880   2.05356
 Alpha virt. eigenvalues --    2.08529   2.09908   4.41923   4.43536   4.44708
 Alpha virt. eigenvalues --    4.44779   4.44955   4.45199   4.46043   4.46383
 Alpha virt. eigenvalues --    4.46840   4.47387   4.47791   4.79692  96.19742
 Alpha virt. eigenvalues --   96.27645  96.28985  96.30653
          Condensed to atoms (all electrons):
               1          2          3          4
     1  Na  10.928449   0.300228  -0.034029  -0.049621
     2  Na   0.300228  10.710976  -0.030110  -0.031439
     3  Na  -0.034029  -0.030110  10.640885   0.401369
     4  Na  -0.049621  -0.031439   0.401369  10.606895
 Mulliken charges:
               1
     1  Na  -0.145026
     2  Na   0.050346
     3  Na   0.021884
     4  Na   0.072796
 Sum of Mulliken charges =  -0.00000
 Mulliken charges with hydrogens summed into heavy atoms:
               1
     1  Na  -0.145026
     2  Na   0.050346
     3  Na   0.021884
     4  Na   0.072796
 Electronic spatial extent (au):  <R**2>=           2194.7414
 Charge=             -0.0000 electrons
 Dipole moment (field-independent basis, Debye):
    X=             -1.6786    Y=              0.1820    Z=             -0.1130  Tot=              1.6922
 Quadrupole moment (field-independent basis, Debye-Ang):
   XX=            -35.0417   YY=            -34.8007   ZZ=            -44.0268
   XY=              3.2655   XZ=             -1.9207   YZ=              0.6855
 Traceless Quadrupole moment (field-independent basis, Debye-Ang):
   XX=              2.9147   YY=              3.1557   ZZ=             -6.0704
   XY=              3.2655   XZ=             -1.9207   YZ=              0.6855
 Octapole moment (field-independent basis, Debye-Ang**2):
  XXX=             54.4459  YYY=              5.7029  ZZZ=             -0.5633  XYY=            -36.4881
  XXY=             11.2572  XXZ=            -18.6153  XZZ=             -7.3245  YZZ=             -0.2427
  YYZ=             -0.5013  XYZ=             -6.6687
 Hexadecapole moment (field-independent basis, Debye-Ang**3):
 XXXX=          -2769.4089 YYYY=           -322.0860 ZZZZ=           -217.0931 XXXY=            135.1189
 XXXZ=            -82.0680 YYYX=              1.4324 YYYZ=              4.9312 ZZZX=             -8.5933
 ZZZY=              2.9339 XXYY=           -532.1497 XXZZ=           -606.8115 YYZZ=            -92.1401
 XXYZ=             12.2497 YYXZ=             -0.3941 ZZXY=              5.9600
 N-N= 8.245576883743D+01 E-N=-1.724129015069D+03  KE= 6.473574928412D+02
 No NMR shielding tensors so no spin-rotation constants.
 Leave Link  601 at Tue Aug  8 11:07:14 2023, MaxMem=  1610612736 cpu:               0.9 elap:               0.1
 (Enter /home/sekinelabo/g16/l701.exe)
 ... and contract with generalized density number  0.
 Compute integral first derivatives.
 Leave Link  701 at Tue Aug  8 11:07:14 2023, MaxMem=  1610612736 cpu:               1.3 elap:               0.1
 (Enter /home/sekinelabo/g16/l702.exe)
 L702 exits ... SP integral derivatives will be done elsewhere.
 Leave Link  702 at Tue Aug  8 11:07:14 2023, MaxMem=  1610612736 cpu:               0.3 elap:               0.0
 (Enter /home/sekinelabo/g16/l703.exe)
 Integral derivatives from FoFJK, PRISM(SPDF).
 Compute integral first derivatives, UseDBF=F ICtDFT=           0.
 Calling FoFJK, ICntrl=      2127 FMM=F ISym2X=0 I1Cent= 0 IOpClX= 0 NMat=1 NMatS=1 NMatT=0.
 FoFJK:  IHMeth= 1 ICntrl=    2127 DoSepK=F KAlg= 0 I1Cent=           0 FoldK=F
 IRaf=         0 NMat=       1 IRICut=       1 DoRegI=T DoRafI=F ISym2E= 0 IDoP0=0 IntGTp=1.
 FoFCou: FMM=F IPFlag=           0 FMFlag=      100000 FMFlg1=         800
         NFxFlg=           0 DoJE=F BraDBF=F KetDBF=F FulRan=T
         wScrn=  0.000000 ICntrl=      2127 IOpCl=  0 I1Cent=           0 NGrid=           0
         NMat0=    1 NMatS0=      1 NMatT0=    0 NMatD0=    1 NMtDS0=    0 NMtDT0=    0
 Symmetry not used in FoFCou.
 Leave Link  703 at Tue Aug  8 11:07:15 2023, MaxMem=  1610612736 cpu:               5.9 elap:               0.4
 (Enter /home/sekinelabo/g16/l716.exe)
 Dipole        =-6.60427573D-01 7.15868063D-02-4.44419814D-02
 ***** Axes restored to original set *****
 -------------------------------------------------------------------
 Center     Atomic                   Forces (Hartrees/Bohr)
 Number     Number              X              Y              Z
 -------------------------------------------------------------------
      1       11          -0.005081603   -0.000250314   -0.004059849
      2       11           0.005261375    0.000036035    0.005462154
      3       11          -0.013225052    0.009940951    0.003871682
      4       11           0.013045279   -0.009726672   -0.005273987
 -------------------------------------------------------------------
 Cartesian Forces:  Max     0.013225052 RMS     0.007534382
 Z-matrix is all fixed cartesians, so copy forces.
 Force constants in Cartesian coordinates: 
                1             2             3             4             5 
      1  0.601276D-02
      2  0.000000D+00  0.000000D+00
      3  0.640048D-02  0.000000D+00  0.681321D-02
      4 -0.601276D-02  0.000000D+00 -0.640048D-02  0.601276D-02
      5  0.000000D+00  0.000000D+00  0.000000D+00  0.000000D+00  0.000000D+00
      6 -0.640048D-02  0.000000D+00 -0.681321D-02  0.640048D-02  0.000000D+00
      7  0.000000D+00  0.000000D+00  0.000000D+00  0.000000D+00  0.000000D+00
      8  0.000000D+00  0.000000D+00  0.000000D+00  0.000000D+00  0.000000D+00
      9  0.000000D+00  0.000000D+00  0.000000D+00  0.000000D+00  0.000000D+00
     10  0.000000D+00  0.000000D+00  0.000000D+00  0.000000D+00  0.000000D+00
     11  0.000000D+00  0.000000D+00  0.000000D+00  0.000000D+00  0.000000D+00
     12  0.000000D+00  0.000000D+00  0.000000D+00  0.000000D+00  0.000000D+00
                6             7             8             9            10 
      6  0.681321D-02
      7  0.000000D+00  0.496006D-01
      8  0.000000D+00 -0.371647D-01  0.278467D-01
      9  0.000000D+00 -0.175817D-01  0.131736D-01  0.623212D-02
     10  0.000000D+00 -0.496006D-01  0.371647D-01  0.175817D-01  0.496006D-01
     11  0.000000D+00  0.371647D-01 -0.278467D-01 -0.131736D-01 -0.371647D-01
     12  0.000000D+00  0.175817D-01 -0.131736D-01 -0.623212D-02 -0.175817D-01
               11            12 
     11  0.278467D-01
     12  0.131736D-01  0.623212D-02
 Leave Link  716 at Tue Aug  8 11:07:15 2023, MaxMem=  1610612736 cpu:               0.3 elap:               0.0
 (Enter /home/sekinelabo/g16/l103.exe)

 GradGradGradGradGradGradGradGradGradGradGradGradGradGradGradGradGradGrad
 Berny optimization.
 Search for a local minimum.
 Step number   1 out of a maximum of    2
 All quantities printed in internal units (Hartrees-Bohrs-Radians)
 Second derivative matrix not updated -- first step.
 The second derivative matrix:
                          X1        Y1        Z1        X2        Y2
           X1           0.00601
           Y1           0.00000   0.00000
           Z1           0.00640   0.00000   0.00681
           X2          -0.00601   0.00000  -0.00640   0.00601
           Y2          -0.00000  -0.00000  -0.00000   0.00000   0.00000
           Z2          -0.00640   0.00000  -0.00681   0.00640   0.00000
           X3           0.00000   0.00000   0.00000   0.00000   0.00000
           Y3           0.00000   0.00000   0.00000   0.00000   0.00000
           Z3           0.00000   0.00000   0.00000   0.00000   0.00000
           X4           0.00000   0.00000   0.00000   0.00000   0.00000
           Y4           0.00000   0.00000   0.00000   0.00000   0.00000
           Z4           0.00000   0.00000   0.00000   0.00000   0.00000
                          Z2        X3        Y3        Z3        X4
           Z2           0.00681
           X3           0.00000   0.04960
           Y3           0.00000  -0.03716   0.02785
           Z3           0.00000  -0.01758   0.01317   0.00623
           X4           0.00000  -0.04960   0.03716   0.01758   0.04960
           Y4           0.00000   0.03716  -0.02785  -0.01317  -0.03716
           Z4           0.00000   0.01758  -0.01317  -0.00623  -0.01758
                          Y4        Z4
           Y4           0.02785
           Z4           0.01317   0.00623
 ITU=  0
     Eigenvalues ---   -0.00000  -0.00000   0.00000   0.00000   0.02565
     Eigenvalues ---    0.16736
 Eigenvalue     1 is  -2.22D-16 should be greater than     0.000000 Eigenvector:
                          Y1        X1        Z2        Y4        X3
   1                    0.52970  -0.42128  -0.38197  -0.36196   0.33016
                          Y2        Z4        Z3        Z1        Y3
   1                   -0.28390   0.14169   0.12130   0.11898   0.11616
 Eigenvalue     2 is  -1.11D-16 should be greater than     0.000000 Eigenvector:
                          Y1        Z2        X1        Y2        X4
   1                    0.47825   0.45520   0.42170  -0.33641  -0.30684
                          Z4        Z3        Y4        X3        Y3
   1                   -0.24841  -0.23553  -0.21752  -0.08259   0.07567
 Eigenvalue     3 is   0.00D+00 Eigenvector:
                          Z1        Z3        X1        X2        Z4
   1                    0.65297  -0.56632  -0.31062   0.27579  -0.18874
                          Y1        Z2        X4        Y3        Y2
   1                   -0.14370   0.10208   0.06834   0.06541   0.05558
 Eigenvalue     4 is   2.22D-16 Eigenvector:
                          Z4        Z3        X4        X2        Z1
   1                    0.69022  -0.55924   0.27402  -0.20790  -0.18420
                          Y1        Y4        X3        Y3        Y2
   1                    0.13344  -0.13269  -0.11093  -0.05536   0.05461
 Quadratic step=1.618D+01 exceeds max=3.000D-01 adjusted using Lamda=-1.455D-02.
 Angle between NR and scaled steps=  67.02 degrees.
 Angle between quadratic step and forces=  42.25 degrees.
 Linear search not attempted -- first point.
 B after Tr=    -0.000000    0.000000    0.000000
         Rot=    1.000000   -0.000000   -0.000000   -0.000000 Ang=   0.00 deg.
 Variable       Old X    -DE/DX   Delta X   Delta X   Delta X     New X
                                 (Linear)    (Quad)   (Total)
    X1       -0.00000  -0.00508   0.00000  -0.13863  -0.13863  -0.13863
    Y1        0.00000  -0.00025   0.00000  -0.01709  -0.01709  -0.01709
    Z1       -0.00000  -0.00406   0.00000  -0.05543  -0.05543  -0.05543
    X2       -4.93001   0.00526   0.00000   0.15090   0.15090  -4.77911
    Y2        0.00000   0.00004   0.00000   0.00246   0.00246   0.00246
    Z2       -5.24792   0.00546   0.00000   0.15117   0.15117  -5.09674
    X3        0.00000  -0.01323   0.00000  -0.07967  -0.07967  -0.07967
    Y3        0.00000   0.00994   0.00000   0.06186   0.06186   0.06186
    Z3        9.59740   0.00387   0.00000  -0.02749  -0.02749   9.56991
    X4        3.70683   0.01305   0.00000   0.06739   0.06739   3.77422
    Y4       -2.77745  -0.00973   0.00000  -0.04723  -0.04723  -2.82468
    Z4        8.28345  -0.00527   0.00000  -0.06826  -0.06826   8.21519
         Item               Value     Threshold  Converged?
 Maximum Force            0.013225     0.000450     NO 
 RMS     Force            0.007534     0.000300     NO 
 Maximum Displacement     0.151174     0.001800     NO 
 RMS     Displacement     0.086878     0.001200     NO 
 Predicted change in Energy=-3.566463D-03
 GradGradGradGradGradGradGradGradGradGradGradGradGradGradGradGradGradGrad

 Leave Link  103 at Tue Aug  8 11:07:15 2023, MaxMem=  1610612736 cpu:               0.2 elap:               0.0
 (Enter /home/sekinelabo/g16/l9999.exe)
 1\1\GINC-SEKINELABO-XA7R-R37\Force\RB3LYP\6-311+G(d)\Na4\SEKINELABO\08
 -Aug-2023\0\\#p B3LYP/6-311+g(d) force\\Test\\0,1\Na,0.,0.,0.\Na,-2.60
 88493423,0.,-2.7770772356\Na,0.,0.,5.0787232891\Na,1.9615702127,-1.469
 7628271,4.3834136184\\Version=ES64L-G16RevB.01\State=1-A\HF=-649.18940
 57\RMSD=5.485e-09\RMSF=7.534e-03\Dipole=0.1893957,-0.076286,0.6336987\
 Quadrupole=2.7463918,-2.8181652,0.0717734,-3.1021512,2.2273959,1.07151
 29\PG=C01 [X(Na4)]\\@


 The number of Unix installations has grown to 10,
  with more expected.
                  -- The Unix Programmer's Manual,
                     2nd Edition, June, 1972.
 Job cpu time:       0 days  0 hours  0 minutes 32.3 seconds.
 Elapsed time:       0 days  0 hours  0 minutes  2.2 seconds.
 File lengths (MBytes):  RWF=     10 Int=      0 D2E=      0 Chk=      2 Scr=      1
 Normal termination of Gaussian 16 at Tue Aug  8 11:07:15 2023.
