 Initial command:
 /home/sekinelabo/g16/l1.exe "/home/sekinelabo/g16temp/Gau-19052.inp" -scrdir="/home/sekinelabo/g16temp/"
 Entering Link 1 = /home/sekinelabo/g16/l1.exe PID=     19567.
  
 Copyright (c) 1988-2017, Gaussian, Inc.  All Rights Reserved.
  
 This is part of the Gaussian(R) 16 program.  It is based on
 the Gaussian(R) 09 system (copyright 2009, Gaussian, Inc.),
 the Gaussian(R) 03 system (copyright 2003, Gaussian, Inc.),
 the Gaussian(R) 98 system (copyright 1998, Gaussian, Inc.),
 the Gaussian(R) 94 system (copyright 1995, Gaussian, Inc.),
 the Gaussian 92(TM) system (copyright 1992, Gaussian, Inc.),
 the Gaussian 90(TM) system (copyright 1990, Gaussian, Inc.),
 the Gaussian 88(TM) system (copyright 1988, Gaussian, Inc.),
 the Gaussian 86(TM) system (copyright 1986, Carnegie Mellon
 University), and the Gaussian 82(TM) system (copyright 1983,
 Carnegie Mellon University). Gaussian is a federally registered
 trademark of Gaussian, Inc.
  
 This software contains proprietary and confidential information,
 including trade secrets, belonging to Gaussian, Inc.
  
 This software is provided under written license and may be
 used, copied, transmitted, or stored only in accord with that
 written license.
  
 The following legend is applicable only to US Government
 contracts under FAR:
  
                    RESTRICTED RIGHTS LEGEND
  
 Use, reproduction and disclosure by the US Government is
 subject to restrictions as set forth in subparagraphs (a)
 and (c) of the Commercial Computer Software - Restricted
 Rights clause in FAR 52.227-19.
  
 Gaussian, Inc.
 340 Quinnipiac St., Bldg. 40, Wallingford CT 06492
  
  
 ---------------------------------------------------------------
 Warning -- This program may not be used in any manner that
 competes with the business of Gaussian, Inc. or will provide
 assistance to any competitor of Gaussian, Inc.  The licensee
 of this program is prohibited from giving any competitor of
 Gaussian, Inc. access to this program.  By using this program,
 the user acknowledges that Gaussian, Inc. is engaged in the
 business of creating and licensing software in the field of
 computational chemistry and represents and warrants to the
 licensee that it is not a competitor of Gaussian, Inc. and that
 it will not use this program in any manner prohibited above.
 ---------------------------------------------------------------
  

 Cite this work as:
 Gaussian 16, Revision B.01,
 M. J. Frisch, G. W. Trucks, H. B. Schlegel, G. E. Scuseria, 
 M. A. Robb, J. R. Cheeseman, G. Scalmani, V. Barone, 
 G. A. Petersson, H. Nakatsuji, X. Li, M. Caricato, A. V. Marenich, 
 J. Bloino, B. G. Janesko, R. Gomperts, B. Mennucci, H. P. Hratchian, 
 J. V. Ortiz, A. F. Izmaylov, J. L. Sonnenberg, D. Williams-Young, 
 F. Ding, F. Lipparini, F. Egidi, J. Goings, B. Peng, A. Petrone, 
 T. Henderson, D. Ranasinghe, V. G. Zakrzewski, J. Gao, N. Rega, 
 G. Zheng, W. Liang, M. Hada, M. Ehara, K. Toyota, R. Fukuda, 
 J. Hasegawa, M. Ishida, T. Nakajima, Y. Honda, O. Kitao, H. Nakai, 
 T. Vreven, K. Throssell, J. A. Montgomery, Jr., J. E. Peralta, 
 F. Ogliaro, M. J. Bearpark, J. J. Heyd, E. N. Brothers, K. N. Kudin, 
 V. N. Staroverov, T. A. Keith, R. Kobayashi, J. Normand, 
 K. Raghavachari, A. P. Rendell, J. C. Burant, S. S. Iyengar, 
 J. Tomasi, M. Cossi, J. M. Millam, M. Klene, C. Adamo, R. Cammi, 
 J. W. Ochterski, R. L. Martin, K. Morokuma, O. Farkas, 
 J. B. Foresman, and D. J. Fox, Gaussian, Inc., Wallingford CT, 2016.
 
 ******************************************
 Gaussian 16:  ES64L-G16RevB.01 20-Dec-2017
                 8-Aug-2023 
 ******************************************
 %NProcShared=16
 Will use up to   16 processors via shared memory.
 %mem=12GB
 %Chk=checkpoint.chk
 -------------------------
 #p B3LYP/6-311+g(d) force
 -------------------------
 1/10=7,30=1,38=1/1,3;
 2/12=2,17=6,18=5,40=1/2;
 3/5=4,6=6,7=11,11=2,25=1,30=1,71=1,74=-5/1,2,3;
 4//1;
 5/5=2,38=5/2;
 6/7=2,8=2,9=2,10=2,28=1/1;
 7/29=1/1,2,3,16;
 1/10=7,30=1/3;
 99//99;
 Leave Link    1 at Tue Aug  8 11:07:10 2023, MaxMem=  1610612736 cpu:               0.2 elap:               0.0
 (Enter /home/sekinelabo/g16/l101.exe)
 ----
 Test
 ----
 Symbolic Z-matrix:
 Charge =  0 Multiplicity = 1
 Na                    0.        0.        0. 
 Na                   -0.83301   0.       -4.54266 
 Na                    0.        0.        2.60652 
 Na                    2.84723  -2.31326   2.49605 
 
 ITRead=  0  0  0  0
 MicOpt= -1 -1 -1 -1
 NAtoms=      4 NQM=        4 NQMF=       0 NMMI=      0 NMMIF=      0
                NMic=       0 NMicF=      0.
                    Isotopes and Nuclear Properties:
 (Nuclear quadrupole moments (NQMom) in fm**2, nuclear magnetic moments (NMagM)
  in nuclear magnetons)

  Atom         1           2           3           4
 IAtWgt=          23          23          23          23
 AtmWgt=  22.9897697  22.9897697  22.9897697  22.9897697
 NucSpn=           3           3           3           3
 AtZEff=  -0.0000000  -0.0000000  -0.0000000  -0.0000000
 NQMom=   10.4000000  10.4000000  10.4000000  10.4000000
 NMagM=    2.2175200   2.2175200   2.2175200   2.2175200
 AtZNuc=  11.0000000  11.0000000  11.0000000  11.0000000
 Leave Link  101 at Tue Aug  8 11:07:10 2023, MaxMem=  1610612736 cpu:               1.5 elap:               0.1
 (Enter /home/sekinelabo/g16/l103.exe)

 GradGradGradGradGradGradGradGradGradGradGradGradGradGradGradGradGradGrad
 Berny optimization.
 Initialization pass.
 Trust Radius=3.00D-01 FncErr=1.00D-07 GrdErr=1.00D-07 EigMax=2.50D+02 EigMin=1.00D-04
 Number of steps in this run=      2 maximum allowed number of steps=      2.
 GradGradGradGradGradGradGradGradGradGradGradGradGradGradGradGradGradGrad

 Leave Link  103 at Tue Aug  8 11:07:10 2023, MaxMem=  1610612736 cpu:               0.2 elap:               0.0
 (Enter /home/sekinelabo/g16/l202.exe)
                          Input orientation:                          
 ---------------------------------------------------------------------
 Center     Atomic      Atomic             Coordinates (Angstroms)
 Number     Number       Type             X           Y           Z
 ---------------------------------------------------------------------
      1         11           0        0.000000    0.000000    0.000000
      2         11           0       -0.833009    0.000000   -4.542659
      3         11           0        0.000000    0.000000    2.606521
      4         11           0        2.847232   -2.313262    2.496052
 ---------------------------------------------------------------------
                    Distance matrix (angstroms):
                    1          2          3          4
     1  Na   0.000000
     2  Na   4.618404   0.000000
     3  Na   2.606521   7.197547   0.000000
     4  Na   4.437137   8.272775   3.670165   0.000000
 Stoichiometry    Na4
 Framework group  C1[X(Na4)]
 Deg. of freedom     6
 Full point group                 C1      NOp   1
 Largest Abelian subgroup         C1      NOp   1
 Largest concise Abelian subgroup C1      NOp   1
                         Standard orientation:                         
 ---------------------------------------------------------------------
 Center     Atomic      Atomic             Coordinates (Angstroms)
 Number     Number       Type             X           Y           Z
 ---------------------------------------------------------------------
      1         11           0       -0.418020   -0.644966    0.129958
      2         11           0       -4.870533    0.568900   -0.046983
      3         11           0        1.970368   -1.668503   -0.074802
      4         11           0        3.318185    1.744569   -0.008174
 ---------------------------------------------------------------------
 Rotational constants (GHZ):           3.3348610           0.5663578           0.4846656
 Leave Link  202 at Tue Aug  8 11:07:10 2023, MaxMem=  1610612736 cpu:               0.4 elap:               0.0
 (Enter /home/sekinelabo/g16/l301.exe)
 Standard basis: 6-311+G(d) (5D, 7F)
 Ernie: Thresh=  0.10000D-02 Tol=  0.10000D-05 Strict=F.
 There are   124 symmetry adapted cartesian basis functions of A   symmetry.
 There are   120 symmetry adapted basis functions of A   symmetry.
   120 basis functions,   200 primitive gaussians,   124 cartesian basis functions
    22 alpha electrons       22 beta electrons
       nuclear repulsion energy        86.9424984229 Hartrees.
 IExCor=  402 DFT=T Ex+Corr=B3LYP ExCW=0 ScaHFX=  0.200000
 ScaDFX=  0.800000  0.720000  1.000000  0.810000 ScalE2=  1.000000  1.000000
 IRadAn=      5 IRanWt=     -1 IRanGd=            0 ICorTp=0 IEmpDi=  4
 NAtoms=    4 NActive=    4 NUniq=    4 SFac= 1.00D+00 NAtFMM=   60 NAOKFM=F Big=F
 Integral buffers will be    131072 words long.
 Raffenetti 2 integral format.
 Two-electron integral symmetry is turned on.
 Leave Link  301 at Tue Aug  8 11:07:10 2023, MaxMem=  1610612736 cpu:               0.6 elap:               0.0
 (Enter /home/sekinelabo/g16/l302.exe)
 NPDir=0 NMtPBC=     1 NCelOv=     1 NCel=       1 NClECP=     1 NCelD=      1
         NCelK=      1 NCelE2=     1 NClLst=     1 CellRange=     0.0.
 One-electron integrals computed using PRISM.
 One-electron integral symmetry used in STVInt
 NBasis=   120 RedAO= T EigKep=  3.00D-06  NBF=   120
 NBsUse=   120 1.00D-06 EigRej= -1.00D+00 NBFU=   120
 Precomputing XC quadrature grid using
 IXCGrd= 4 IRadAn=           5 IRanWt=          -1 IRanGd=           0 AccXCQ= 0.00D+00.
 Generated NRdTot=       0 NPtTot=           0 NUsed=           0 NTot=          32
 NSgBfM=   117   117   117   117   117 MxSgAt=     4 MxSgA2=     4.
 Leave Link  302 at Tue Aug  8 11:07:10 2023, MaxMem=  1610612736 cpu:               1.3 elap:               0.1
 (Enter /home/sekinelabo/g16/l303.exe)
 DipDrv:  MaxL=1.
 Leave Link  303 at Tue Aug  8 11:07:10 2023, MaxMem=  1610612736 cpu:               0.4 elap:               0.0
 (Enter /home/sekinelabo/g16/l401.exe)
 ExpMin= 7.60D-03 ExpMax= 3.62D+04 ExpMxC= 1.21D+03 IAcc=3 IRadAn=         5 AccDes= 0.00D+00
 Harris functional with IExCor=  402 and IRadAn=       5 diagonalized for initial guess.
 HarFok:  IExCor=  402 AccDes= 0.00D+00 IRadAn=         5 IDoV= 1 UseB2=F ITyADJ=14
 ICtDFT=  3500011 ScaDFX=  1.000000  1.000000  1.000000  1.000000
 FoFCou: FMM=F IPFlag=           0 FMFlag=      100000 FMFlg1=           0
         NFxFlg=           0 DoJE=T BraDBF=F KetDBF=T FulRan=T
         wScrn=  0.000000 ICntrl=       500 IOpCl=  0 I1Cent=   200000004 NGrid=           0
         NMat0=    1 NMatS0=      1 NMatT0=    0 NMatD0=    1 NMtDS0=    0 NMtDT0=    0
 Petite list used in FoFCou.
 Harris En= -649.050462743692    
 JPrj=0 DoOrth=F DoCkMO=F.
 Leave Link  401 at Tue Aug  8 11:07:10 2023, MaxMem=  1610612736 cpu:               2.2 elap:               0.1
 (Enter /home/sekinelabo/g16/l502.exe)
 Keep R1 ints in memory in canonical form, NReq=41581762.
 FoFCou: FMM=F IPFlag=           0 FMFlag=           0 FMFlg1=           0
         NFxFlg=           0 DoJE=F BraDBF=F KetDBF=F FulRan=T
         wScrn=  0.000000 ICntrl=       600 IOpCl=  0 I1Cent=           0 NGrid=           0
         NMat0=    1 NMatS0=   7260 NMatT0=    0 NMatD0=    1 NMtDS0=    0 NMtDT0=    0
 Symmetry not used in FoFCou.
 Two-electron integral symmetry not used.
 Closed shell SCF:
 Using DIIS extrapolation, IDIIS=  1040.
 NGot=  1610612736 LenX=  1584221380 LenY=  1584205563
 Requested convergence on RMS density matrix=1.00D-08 within 128 cycles.
 Requested convergence on MAX density matrix=1.00D-06.
 Requested convergence on             energy=1.00D-06.
 No special actions if energy rises.

 Cycle   1  Pass 1  IDiag  1:
 E= -649.155511679782    
 DIIS: error= 1.27D-02 at cycle   1 NSaved=   1.
 NSaved= 1 IEnMin= 1 EnMin= -649.155511679782     IErMin= 1 ErrMin= 1.27D-02
 ErrMax= 1.27D-02  0.00D+00 EMaxC= 1.00D-01 BMatC= 2.75D-02 BMatP= 2.75D-02
 IDIUse=3 WtCom= 8.73D-01 WtEn= 1.27D-01
 Coeff-Com:  0.100D+01
 Coeff-En:   0.100D+01
 Coeff:      0.100D+01
 Gap=     0.001 Goal=   None    Shift=    0.000
 GapD=    0.001 DampG=0.250 DampE=0.500 DampFc=0.2500 IDamp=-1.
 Damping current iteration by 2.50D-01
 RMSDP=2.62D-02 MaxDP=1.52D+00              OVMax= 7.42D-01

 Cycle   2  Pass 1  IDiag  1:
 E= -649.160244260110     Delta-E=       -0.004732580328 Rises=F Damp=T
 DIIS: error= 8.99D-03 at cycle   2 NSaved=   2.
 NSaved= 2 IEnMin= 2 EnMin= -649.160244260110     IErMin= 2 ErrMin= 8.99D-03
 ErrMax= 8.99D-03  0.00D+00 EMaxC= 1.00D-01 BMatC= 1.02D-02 BMatP= 2.75D-02
 IDIUse=3 WtCom= 9.10D-01 WtEn= 8.99D-02
 Coeff-Com: -0.932D+00 0.193D+01
 Coeff-En:   0.305D+00 0.695D+00
 Coeff:     -0.821D+00 0.182D+01
 Gap=    -0.013 Goal=   None    Shift=    0.000
 RMSDP=3.40D-02 MaxDP=2.12D+00 DE=-4.73D-03 OVMax= 6.88D-01

 Cycle   3  Pass 1  IDiag  1:
 E= -649.078728262316     Delta-E=        0.081515997794 Rises=F Damp=F
 DIIS: error= 1.28D-02 at cycle   3 NSaved=   3.
 NSaved= 3 IEnMin= 2 EnMin= -649.160244260110     IErMin= 2 ErrMin= 8.99D-03
 ErrMax= 1.28D-02  0.00D+00 EMaxC= 1.00D-01 BMatC= 9.79D-03 BMatP= 1.02D-02
 IDIUse=3 WtCom= 8.72D-01 WtEn= 1.28D-01
 Rare condition: small coef for last iteration:  0.000D+00
 Coeff-Com: -0.669D+00 0.128D+01 0.390D+00
 Coeff-En:   0.250D+00 0.720D+00 0.303D-01
 Coeff:     -0.669D+00 0.128D+01 0.390D+00
 Gap=     0.042 Goal=   None    Shift=    0.000
 RMSDP=1.46D-02 MaxDP=6.66D-01 DE= 8.15D-02 OVMax= 6.84D-01

 Cycle   4  Pass 1  IDiag  1:
 E= -649.156947993546     Delta-E=       -0.078219731230 Rises=F Damp=F
 DIIS: error= 5.98D-03 at cycle   4 NSaved=   4.
 NSaved= 4 IEnMin= 2 EnMin= -649.160244260110     IErMin= 4 ErrMin= 5.98D-03
 ErrMax= 5.98D-03  0.00D+00 EMaxC= 1.00D-01 BMatC= 2.39D-03 BMatP= 9.79D-03
 IDIUse=3 WtCom= 9.40D-01 WtEn= 5.98D-02
 EnCoef did   100 forward-backward iterations
 Coeff-Com: -0.224D-02 0.735D-01 0.286D+00 0.643D+00
 Coeff-En:   0.477D+00 0.000D+00 0.439D-02 0.519D+00
 Coeff:      0.264D-01 0.691D-01 0.269D+00 0.635D+00
 Gap=     0.021 Goal=   None    Shift=    0.000
 RMSDP=3.51D-03 MaxDP=1.41D-01 DE=-7.82D-02 OVMax= 3.02D-01

 Cycle   5  Pass 1  IDiag  1:
 E= -649.174539359451     Delta-E=       -0.017591365905 Rises=F Damp=F
 DIIS: error= 1.67D-03 at cycle   5 NSaved=   5.
 NSaved= 5 IEnMin= 5 EnMin= -649.174539359451     IErMin= 5 ErrMin= 1.67D-03
 ErrMax= 1.67D-03  0.00D+00 EMaxC= 1.00D-01 BMatC= 2.58D-04 BMatP= 2.39D-03
 IDIUse=3 WtCom= 9.83D-01 WtEn= 1.67D-02
 Coeff-Com:  0.383D-01-0.436D-01-0.114D-01 0.230D+00 0.787D+00
 Coeff-En:   0.000D+00 0.000D+00 0.000D+00 0.166D+00 0.834D+00
 Coeff:      0.376D-01-0.428D-01-0.112D-01 0.229D+00 0.788D+00
 Gap=     0.026 Goal=   None    Shift=    0.000
 RMSDP=5.64D-03 MaxDP=2.85D-01 DE=-1.76D-02 OVMax= 8.24D-02

 Cycle   6  Pass 1  IDiag  1:
 E= -649.176198470474     Delta-E=       -0.001659111023 Rises=F Damp=F
 DIIS: error= 5.73D-04 at cycle   6 NSaved=   6.
 NSaved= 6 IEnMin= 6 EnMin= -649.176198470474     IErMin= 6 ErrMin= 5.73D-04
 ErrMax= 5.73D-04  0.00D+00 EMaxC= 1.00D-01 BMatC= 3.23D-05 BMatP= 2.58D-04
 IDIUse=3 WtCom= 9.94D-01 WtEn= 5.73D-03
 Coeff-Com:  0.144D-01-0.175D-01-0.219D-01 0.557D-01 0.345D+00 0.624D+00
 Coeff-En:   0.000D+00 0.000D+00 0.000D+00 0.000D+00 0.607D-01 0.939D+00
 Coeff:      0.144D-01-0.174D-01-0.217D-01 0.554D-01 0.343D+00 0.626D+00
 Gap=     0.027 Goal=   None    Shift=    0.000
 RMSDP=9.10D-04 MaxDP=4.36D-02 DE=-1.66D-03 OVMax= 3.11D-02

 Cycle   7  Pass 1  IDiag  1:
 E= -649.176200606777     Delta-E=       -0.000002136303 Rises=F Damp=F
 DIIS: error= 4.11D-04 at cycle   7 NSaved=   7.
 NSaved= 7 IEnMin= 7 EnMin= -649.176200606777     IErMin= 7 ErrMin= 4.11D-04
 ErrMax= 4.11D-04  0.00D+00 EMaxC= 1.00D-01 BMatC= 1.65D-05 BMatP= 3.23D-05
 IDIUse=3 WtCom= 9.96D-01 WtEn= 4.11D-03
 Coeff-Com: -0.738D-02 0.103D-01-0.930D-02 0.299D-01 0.492D-01 0.309D+00
 Coeff-Com:  0.618D+00
 Coeff-En:   0.000D+00 0.000D+00 0.000D+00 0.000D+00 0.000D+00 0.497D+00
 Coeff-En:   0.503D+00
 Coeff:     -0.735D-02 0.103D-01-0.926D-02 0.298D-01 0.490D-01 0.310D+00
 Coeff:      0.617D+00
 Gap=     0.027 Goal=   None    Shift=    0.000
 RMSDP=9.49D-04 MaxDP=5.15D-02 DE=-2.14D-06 OVMax= 9.25D-03

 Cycle   8  Pass 1  IDiag  1:
 E= -649.176286301220     Delta-E=       -0.000085694444 Rises=F Damp=F
 DIIS: error= 2.94D-04 at cycle   8 NSaved=   8.
 NSaved= 8 IEnMin= 8 EnMin= -649.176286301220     IErMin= 8 ErrMin= 2.94D-04
 ErrMax= 2.94D-04  0.00D+00 EMaxC= 1.00D-01 BMatC= 4.51D-06 BMatP= 1.65D-05
 IDIUse=3 WtCom= 9.97D-01 WtEn= 2.94D-03
 Coeff-Com: -0.114D-01 0.153D-01-0.277D-02 0.213D-01-0.447D-01 0.737D-01
 Coeff-Com:  0.287D+00 0.661D+00
 Coeff-En:   0.000D+00 0.000D+00 0.000D+00 0.000D+00 0.000D+00 0.214D+00
 Coeff-En:   0.000D+00 0.786D+00
 Coeff:     -0.113D-01 0.152D-01-0.276D-02 0.213D-01-0.445D-01 0.741D-01
 Coeff:      0.286D+00 0.662D+00
 Gap=     0.027 Goal=   None    Shift=    0.000
 RMSDP=1.22D-04 MaxDP=4.51D-03 DE=-8.57D-05 OVMax= 6.24D-03

 Cycle   9  Pass 1  IDiag  1:
 E= -649.176317785456     Delta-E=       -0.000031484235 Rises=F Damp=F
 DIIS: error= 1.11D-04 at cycle   9 NSaved=   9.
 NSaved= 9 IEnMin= 9 EnMin= -649.176317785456     IErMin= 9 ErrMin= 1.11D-04
 ErrMax= 1.11D-04  0.00D+00 EMaxC= 1.00D-01 BMatC= 6.74D-07 BMatP= 4.51D-06
 IDIUse=3 WtCom= 9.99D-01 WtEn= 1.11D-03
 Coeff-Com: -0.557D-02 0.749D-02 0.521D-03 0.476D-02-0.355D-01-0.273D-01
 Coeff-Com: -0.166D-01 0.257D-01 0.105D+01
 Coeff-En:   0.000D+00 0.000D+00 0.000D+00 0.000D+00 0.000D+00 0.000D+00
 Coeff-En:   0.000D+00 0.000D+00 0.100D+01
 Coeff:     -0.557D-02 0.748D-02 0.520D-03 0.476D-02-0.354D-01-0.273D-01
 Coeff:     -0.166D-01 0.257D-01 0.105D+01
 Gap=     0.027 Goal=   None    Shift=    0.000
 RMSDP=1.55D-04 MaxDP=8.47D-03 DE=-3.15D-05 OVMax= 3.85D-03

 Cycle  10  Pass 1  IDiag  1:
 E= -649.176323397507     Delta-E=       -0.000005612052 Rises=F Damp=F
 DIIS: error= 5.44D-06 at cycle  10 NSaved=  10.
 NSaved=10 IEnMin=10 EnMin= -649.176323397507     IErMin=10 ErrMin= 5.44D-06
 ErrMax= 5.44D-06  0.00D+00 EMaxC= 1.00D-01 BMatC= 3.28D-09 BMatP= 6.74D-07
 IDIUse=1 WtCom= 1.00D+00 WtEn= 0.00D+00
 Coeff-Com: -0.735D-03 0.998D-03 0.263D-03-0.515D-03-0.395D-02-0.300D-02
 Coeff-Com: -0.902D-02-0.279D-01 0.107D+00 0.936D+00
 Coeff:     -0.735D-03 0.998D-03 0.263D-03-0.515D-03-0.395D-02-0.300D-02
 Coeff:     -0.902D-02-0.279D-01 0.107D+00 0.936D+00
 Gap=     0.027 Goal=   None    Shift=    0.000
 RMSDP=3.78D-05 MaxDP=2.26D-03 DE=-5.61D-06 OVMax= 4.25D-04

 Cycle  11  Pass 1  IDiag  1:
 E= -649.176323405201     Delta-E=       -0.000000007694 Rises=F Damp=F
 DIIS: error= 4.39D-06 at cycle  11 NSaved=  11.
 NSaved=11 IEnMin=11 EnMin= -649.176323405201     IErMin=11 ErrMin= 4.39D-06
 ErrMax= 4.39D-06  0.00D+00 EMaxC= 1.00D-01 BMatC= 1.55D-09 BMatP= 3.28D-09
 IDIUse=1 WtCom= 1.00D+00 WtEn= 0.00D+00
 Coeff-Com:  0.182D-03-0.243D-03-0.820D-05-0.391D-03 0.147D-02 0.254D-02
 Coeff-Com:  0.595D-02-0.435D-02-0.370D-01 0.198D+00 0.834D+00
 Coeff:      0.182D-03-0.243D-03-0.820D-05-0.391D-03 0.147D-02 0.254D-02
 Coeff:      0.595D-02-0.435D-02-0.370D-01 0.198D+00 0.834D+00
 Gap=     0.027 Goal=   None    Shift=    0.000
 RMSDP=1.16D-05 MaxDP=6.26D-04 DE=-7.69D-09 OVMax= 1.75D-04

 Cycle  12  Pass 1  IDiag  1:
 E= -649.176323417904     Delta-E=       -0.000000012703 Rises=F Damp=F
 DIIS: error= 4.12D-07 at cycle  12 NSaved=  12.
 NSaved=12 IEnMin=12 EnMin= -649.176323417904     IErMin=12 ErrMin= 4.12D-07
 ErrMax= 4.12D-07  0.00D+00 EMaxC= 1.00D-01 BMatC= 1.82D-11 BMatP= 1.55D-09
 IDIUse=1 WtCom= 1.00D+00 WtEn= 0.00D+00
 Coeff-Com:  0.469D-04-0.613D-04 0.714D-05-0.931D-04 0.999D-04 0.386D-04
 Coeff-Com:  0.515D-03 0.107D-02-0.353D-02-0.149D-01 0.173D+00 0.843D+00
 Coeff:      0.469D-04-0.613D-04 0.714D-05-0.931D-04 0.999D-04 0.386D-04
 Coeff:      0.515D-03 0.107D-02-0.353D-02-0.149D-01 0.173D+00 0.843D+00
 Gap=     0.027 Goal=   None    Shift=    0.000
 RMSDP=1.69D-06 MaxDP=9.54D-05 DE=-1.27D-08 OVMax= 2.07D-05

 Cycle  13  Pass 1  IDiag  1:
 E= -649.176323417853     Delta-E=        0.000000000051 Rises=F Damp=F
 DIIS: error= 5.61D-07 at cycle  13 NSaved=  13.
 NSaved=13 IEnMin=12 EnMin= -649.176323417904     IErMin=12 ErrMin= 4.12D-07
 ErrMax= 5.61D-07  0.00D+00 EMaxC= 1.00D-01 BMatC= 1.88D-11 BMatP= 1.82D-11
 IDIUse=1 WtCom= 1.00D+00 WtEn= 0.00D+00
 Coeff-Com:  0.744D-05-0.943D-05-0.273D-07-0.201D-04 0.582D-05-0.703D-04
 Coeff-Com:  0.103D-04 0.802D-03 0.133D-02-0.181D-01-0.140D-01 0.233D+00
 Coeff-Com:  0.797D+00
 Coeff:      0.744D-05-0.943D-05-0.273D-07-0.201D-04 0.582D-05-0.703D-04
 Coeff:      0.103D-04 0.802D-03 0.133D-02-0.181D-01-0.140D-01 0.233D+00
 Coeff:      0.797D+00
 Gap=     0.027 Goal=   None    Shift=    0.000
 RMSDP=2.98D-07 MaxDP=1.16D-05 DE= 5.13D-11 OVMax= 2.12D-05

 Cycle  14  Pass 1  IDiag  1:
 E= -649.176323418021     Delta-E=       -0.000000000168 Rises=F Damp=F
 DIIS: error= 3.28D-08 at cycle  14 NSaved=  14.
 NSaved=14 IEnMin=14 EnMin= -649.176323418021     IErMin=14 ErrMin= 3.28D-08
 ErrMax= 3.28D-08  0.00D+00 EMaxC= 1.00D-01 BMatC= 7.27D-14 BMatP= 1.82D-11
 IDIUse=1 WtCom= 1.00D+00 WtEn= 0.00D+00
 Coeff-Com: -0.205D-05 0.271D-05-0.172D-06 0.441D-06-0.841D-05-0.157D-04
 Coeff-Com: -0.365D-04 0.548D-04 0.409D-03-0.142D-02-0.102D-01-0.896D-02
 Coeff-Com:  0.498D-01 0.970D+00
 Coeff:     -0.205D-05 0.271D-05-0.172D-06 0.441D-06-0.841D-05-0.157D-04
 Coeff:     -0.365D-04 0.548D-04 0.409D-03-0.142D-02-0.102D-01-0.896D-02
 Coeff:      0.498D-01 0.970D+00
 Gap=     0.027 Goal=   None    Shift=    0.000
 RMSDP=4.80D-08 MaxDP=1.38D-06 DE=-1.68D-10 OVMax= 2.23D-06

 Cycle  15  Pass 1  IDiag  1:
 E= -649.176323418021     Delta-E=       -0.000000000000 Rises=F Damp=F
 DIIS: error= 2.25D-08 at cycle  15 NSaved=  15.
 NSaved=15 IEnMin=15 EnMin= -649.176323418021     IErMin=15 ErrMin= 2.25D-08
 ErrMax= 2.25D-08  0.00D+00 EMaxC= 1.00D-01 BMatC= 2.41D-14 BMatP= 7.27D-14
 IDIUse=1 WtCom= 1.00D+00 WtEn= 0.00D+00
 Coeff-Com: -0.339D-06 0.433D-06 0.387D-07-0.559D-08 0.341D-06-0.564D-06
 Coeff-Com: -0.653D-05-0.420D-04-0.865D-04 0.560D-03-0.104D-02-0.934D-02
 Coeff-Com: -0.115D-01 0.255D+00 0.766D+00
 Coeff:     -0.339D-06 0.433D-06 0.387D-07-0.559D-08 0.341D-06-0.564D-06
 Coeff:     -0.653D-05-0.420D-04-0.865D-04 0.560D-03-0.104D-02-0.934D-02
 Coeff:     -0.115D-01 0.255D+00 0.766D+00
 Gap=     0.027 Goal=   None    Shift=    0.000
 RMSDP=1.63D-08 MaxDP=5.80D-07 DE=-4.55D-13 OVMax= 8.55D-07

 Cycle  16  Pass 1  IDiag  1:
 E= -649.176323418020     Delta-E=        0.000000000001 Rises=F Damp=F
 DIIS: error= 1.70D-09 at cycle  16 NSaved=  16.
 NSaved=16 IEnMin=15 EnMin= -649.176323418021     IErMin=16 ErrMin= 1.70D-09
 ErrMax= 1.70D-09  0.00D+00 EMaxC= 1.00D-01 BMatC= 1.75D-16 BMatP= 2.41D-14
 IDIUse=1 WtCom= 1.00D+00 WtEn= 0.00D+00
 Large coefficients: NSaved= 16 BigCof=    0.00 CofMax=   10.00 Det=-1.08D-15
 Inversion failed.  Reducing to 15 matrices.
 Coeff-Com:  0.271D-07-0.354D-07 0.118D-06-0.245D-06 0.791D-06 0.282D-05
 Coeff-Com: -0.255D-05-0.426D-04 0.100D-03 0.546D-03 0.663D-04-0.452D-02
 Coeff-Com: -0.471D-01 0.201D+00 0.850D+00
 Coeff:      0.271D-07-0.354D-07 0.118D-06-0.245D-06 0.791D-06 0.282D-05
 Coeff:     -0.255D-05-0.426D-04 0.100D-03 0.546D-03 0.663D-04-0.452D-02
 Coeff:     -0.471D-01 0.201D+00 0.850D+00
 Gap=     0.027 Goal=   None    Shift=    0.000
 RMSDP=4.13D-09 MaxDP=2.31D-07 DE= 1.02D-12 OVMax= 5.78D-08

 SCF Done:  E(RB3LYP) =  -649.176323418     A.U. after   16 cycles
            NFock= 16  Conv=0.41D-08     -V/T= 2.0029
 KE= 6.473309339843D+02 PE=-1.732848140659D+03 EE= 3.493983848337D+02
 Leave Link  502 at Tue Aug  8 11:07:12 2023, MaxMem=  1610612736 cpu:              24.5 elap:               1.8
 (Enter /home/sekinelabo/g16/l601.exe)
 Copying SCF densities to generalized density rwf, IOpCl= 0 IROHF=0.

 **********************************************************************

            Population analysis using the SCF Density.

 **********************************************************************

 Orbital symmetries:
       Occupied  (A) (A) (A) (A) (A) (A) (A) (A) (A) (A) (A) (A)
                 (A) (A) (A) (A) (A) (A) (A) (A) (A) (A)
       Virtual   (A) (A) (A) (A) (A) (A) (A) (A) (A) (A) (A) (A)
                 (A) (A) (A) (A) (A) (A) (A) (A) (A) (A) (A) (A)
                 (A) (A) (A) (A) (A) (A) (A) (A) (A) (A) (A) (A)
                 (A) (A) (A) (A) (A) (A) (A) (A) (A) (A) (A) (A)
                 (A) (A) (A) (A) (A) (A) (A) (A) (A) (A) (A) (A)
                 (A) (A) (A) (A) (A) (A) (A) (A) (A) (A) (A) (A)
                 (A) (A) (A) (A) (A) (A) (A) (A) (A) (A) (A) (A)
                 (A) (A) (A) (A) (A) (A) (A) (A) (A) (A) (A) (A)
                 (A) (A)
 The electronic state is 1-A.
 Alpha  occ. eigenvalues --  -38.45969 -38.45864 -38.45062 -38.44629  -2.21845
 Alpha  occ. eigenvalues --   -2.21585  -2.20900  -2.20323  -1.15805  -1.15462
 Alpha  occ. eigenvalues --   -1.15400  -1.15266  -1.15264  -1.15204  -1.14553
 Alpha  occ. eigenvalues --   -1.14532  -1.14469  -1.14000  -1.13999  -1.13959
 Alpha  occ. eigenvalues --   -0.15423  -0.10797
 Alpha virt. eigenvalues --   -0.08108  -0.05054  -0.03593  -0.02972  -0.01622
 Alpha virt. eigenvalues --   -0.01258  -0.01212  -0.00378  -0.00314   0.00160
 Alpha virt. eigenvalues --    0.00407   0.00726   0.00924   0.01135   0.01415
 Alpha virt. eigenvalues --    0.01509   0.01578   0.01806   0.01905   0.02114
 Alpha virt. eigenvalues --    0.02168   0.02324   0.02675   0.03082   0.03287
 Alpha virt. eigenvalues --    0.03440   0.03519   0.03685   0.04219   0.05548
 Alpha virt. eigenvalues --    0.06107   0.06911   0.07961   0.07969   0.08236
 Alpha virt. eigenvalues --    0.08306   0.08628   0.08667   0.09265   0.09902
 Alpha virt. eigenvalues --    0.10343   0.10713   0.12306   0.12724   0.14635
 Alpha virt. eigenvalues --    0.17182   0.27605   0.28154   0.29225   0.29908
 Alpha virt. eigenvalues --    0.32493   0.34240   0.34633   0.35096   0.35495
 Alpha virt. eigenvalues --    0.35543   0.36028   0.36234   0.36556   0.38327
 Alpha virt. eigenvalues --    0.40077   0.41266   0.42194   0.42793   0.43493
 Alpha virt. eigenvalues --    0.43735   0.43775   0.43897   0.44718   0.45921
 Alpha virt. eigenvalues --    0.46241   0.47137   0.48453   0.51043   0.52517
 Alpha virt. eigenvalues --    0.54311   0.57135   0.85931   2.01220   2.04732
 Alpha virt. eigenvalues --    2.09109   2.11744   4.42075   4.42987   4.43185
 Alpha virt. eigenvalues --    4.43720   4.44112   4.44242   4.44465   4.45464
 Alpha virt. eigenvalues --    4.46776   4.47517   4.49318   4.79238  96.20296
 Alpha virt. eigenvalues --   96.24449  96.30994  96.33917
          Condensed to atoms (all electrons):
               1          2          3          4
     1  Na  16.033958   0.732399  -4.396196   0.638443
     2  Na   0.732399  10.990086  -0.509286  -0.018722
     3  Na  -4.396196  -0.509286  14.353189  -0.597728
     4  Na   0.638443  -0.018722  -0.597728  10.924946
 Mulliken charges:
               1
     1  Na  -2.008604
     2  Na  -0.194477
     3  Na   2.150020
     4  Na   0.053061
 Sum of Mulliken charges =  -0.00000
 Mulliken charges with hydrogens summed into heavy atoms:
               1
     1  Na  -2.008604
     2  Na  -0.194477
     3  Na   2.150020
     4  Na   0.053061
 Electronic spatial extent (au):  <R**2>=           1870.4974
 Charge=             -0.0000 electrons
 Dipole moment (field-independent basis, Debye):
    X=              2.6015    Y=              0.2645    Z=             -0.0448  Tot=              2.6153
 Quadrupole moment (field-independent basis, Debye-Ang):
   XX=            -38.8168   YY=            -34.7142   ZZ=            -44.6173
   XY=             -1.7762   XZ=              0.0114   YZ=              0.3205
 Traceless Quadrupole moment (field-independent basis, Debye-Ang):
   XX=              0.5659   YY=              4.6686   ZZ=             -5.2346
   XY=             -1.7762   XZ=              0.0114   YZ=              0.3205
 Octapole moment (field-independent basis, Debye-Ang**2):
  XXX=              5.1129  YYY=             -4.4273  ZZZ=             -0.1507  XYY=             38.9928
  XXY=             14.4661  XXZ=             -1.8351  XZZ=             10.5571  YZZ=             -1.3061
  YYZ=             -0.8206  XYZ=              1.0103
 Hexadecapole moment (field-independent basis, Debye-Ang**3):
 XXXX=          -2530.0067 YYYY=           -497.4929 ZZZZ=           -192.3832 XXXY=            -20.1124
 XXXZ=              6.7586 YYYX=            -14.1158 YYYZ=              2.9380 ZZZX=             -0.2025
 ZZZY=              1.6084 XXYY=           -484.8610 XXZZ=           -511.7489 YYZZ=           -120.4280
 XXYZ=              1.7855 YYXZ=             -1.5239 ZZXY=             -4.5169
 N-N= 8.694249842286D+01 E-N=-1.732848140617D+03  KE= 6.473309339843D+02
 No NMR shielding tensors so no spin-rotation constants.
 Leave Link  601 at Tue Aug  8 11:07:12 2023, MaxMem=  1610612736 cpu:               1.0 elap:               0.1
 (Enter /home/sekinelabo/g16/l701.exe)
 ... and contract with generalized density number  0.
 Compute integral first derivatives.
 Leave Link  701 at Tue Aug  8 11:07:12 2023, MaxMem=  1610612736 cpu:               1.3 elap:               0.1
 (Enter /home/sekinelabo/g16/l702.exe)
 L702 exits ... SP integral derivatives will be done elsewhere.
 Leave Link  702 at Tue Aug  8 11:07:12 2023, MaxMem=  1610612736 cpu:               0.4 elap:               0.0
 (Enter /home/sekinelabo/g16/l703.exe)
 Integral derivatives from FoFJK, PRISM(SPDF).
 Compute integral first derivatives, UseDBF=F ICtDFT=           0.
 Calling FoFJK, ICntrl=      2127 FMM=F ISym2X=0 I1Cent= 0 IOpClX= 0 NMat=1 NMatS=1 NMatT=0.
 FoFJK:  IHMeth= 1 ICntrl=    2127 DoSepK=F KAlg= 0 I1Cent=           0 FoldK=F
 IRaf=         0 NMat=       1 IRICut=       1 DoRegI=T DoRafI=F ISym2E= 0 IDoP0=0 IntGTp=1.
 FoFCou: FMM=F IPFlag=           0 FMFlag=      100000 FMFlg1=         800
         NFxFlg=           0 DoJE=F BraDBF=F KetDBF=F FulRan=T
         wScrn=  0.000000 ICntrl=      2127 IOpCl=  0 I1Cent=           0 NGrid=           0
         NMat0=    1 NMatS0=      1 NMatT0=    0 NMatD0=    1 NMtDS0=    0 NMtDT0=    0
 Symmetry not used in FoFCou.
 Leave Link  703 at Tue Aug  8 11:07:13 2023, MaxMem=  1610612736 cpu:               6.0 elap:               0.4
 (Enter /home/sekinelabo/g16/l716.exe)
 Dipole        = 1.02350285D+00 1.04051940D-01-1.76236987D-02
 ***** Axes restored to original set *****
 -------------------------------------------------------------------
 Center     Atomic                   Forces (Hartrees/Bohr)
 Number     Number              X              Y              Z
 -------------------------------------------------------------------
      1       11          -0.000149077   -0.000802437   -0.022376933
      2       11           0.000712328    0.000284685    0.005578647
      3       11           0.003313786   -0.002715403    0.016667932
      4       11          -0.003877036    0.003233155    0.000130354
 -------------------------------------------------------------------
 Cartesian Forces:  Max     0.022376933 RMS     0.008439882
 Z-matrix is all fixed cartesians, so copy forces.
 Force constants in Cartesian coordinates: 
                1             2             3             4             5 
      1  0.620709D-02
      2 -0.504301D-02  0.409724D-02
      3  0.000000D+00  0.000000D+00  0.743087D-01
      4  0.000000D+00  0.000000D+00  0.000000D+00  0.100000D+01
      5  0.000000D+00  0.000000D+00  0.000000D+00  0.000000D+00  0.100000D+01
      6  0.000000D+00  0.000000D+00  0.000000D+00  0.000000D+00  0.000000D+00
      7 -0.607440D-02  0.493521D-02  0.000000D+00  0.000000D+00  0.000000D+00
      8  0.493521D-02 -0.400966D-02  0.000000D+00  0.000000D+00  0.000000D+00
      9  0.567718D-02 -0.461248D-02 -0.743087D-01  0.000000D+00  0.000000D+00
     10 -0.132684D-03  0.107801D-03  0.000000D+00  0.000000D+00  0.000000D+00
     11  0.107801D-03 -0.875837D-04  0.000000D+00  0.000000D+00  0.000000D+00
     12 -0.567718D-02  0.461248D-02  0.000000D+00  0.000000D+00  0.000000D+00
                6             7             8             9            10 
      6  0.100000D+01
      7  0.000000D+00  0.149931D-01
      8  0.000000D+00 -0.121813D-01  0.989679D-02
      9  0.000000D+00 -0.590689D-02  0.479912D-02  0.795148D-01
     10  0.000000D+00 -0.891866D-02  0.724606D-02  0.229715D-03  0.419669D+00
     11  0.000000D+00  0.724606D-02 -0.588713D-02 -0.186634D-03  0.481995D+00
     12  0.000000D+00  0.590689D-02 -0.479912D-02 -0.520613D-02 -0.505675D-01
               11            12 
     11  0.589149D+00
     12 -0.598028D-01  0.113771D-01
 Leave Link  716 at Tue Aug  8 11:07:13 2023, MaxMem=  1610612736 cpu:               0.3 elap:               0.0
 (Enter /home/sekinelabo/g16/l103.exe)

 GradGradGradGradGradGradGradGradGradGradGradGradGradGradGradGradGradGrad
 Berny optimization.
 Search for a local minimum.
 Step number   1 out of a maximum of    2
 All quantities printed in internal units (Hartrees-Bohrs-Radians)
 Second derivative matrix not updated -- first step.
 The second derivative matrix:
                          X1        Y1        Z1        X2        Y2
           X1           0.00621
           Y1          -0.00504   0.00410
           Z1           0.00000  -0.00000   0.07431
           X2           0.00000   0.00000   0.00000   1.00000
           Y2           0.00000   0.00000   0.00000   0.00000   1.00000
           Z2           0.00000   0.00000   0.00000   0.00000  -0.00000
           X3          -0.00607   0.00494   0.00000   0.00000   0.00000
           Y3           0.00494  -0.00401   0.00000   0.00000   0.00000
           Z3           0.00568  -0.00461  -0.07431   0.00000   0.00000
           X4          -0.00013   0.00011   0.00000   0.00000   0.00000
           Y4           0.00011  -0.00009  -0.00000   0.00000   0.00000
           Z4          -0.00568   0.00461   0.00000   0.00000   0.00000
                          Z2        X3        Y3        Z3        X4
           Z2           1.00000
           X3           0.00000   0.01499
           Y3           0.00000  -0.01218   0.00990
           Z3           0.00000  -0.00591   0.00480   0.07951
           X4           0.00000  -0.00892   0.00725   0.00023   0.41967
           Y4           0.00000   0.00725  -0.00589  -0.00019   0.48199
           Z4           0.00000   0.00591  -0.00480  -0.00521  -0.05057
                          Y4        Z4
           Y4           0.58915
           Z4          -0.05980   0.01138
 ITU=  0
     Eigenvalues ---    0.01690   0.04155   0.09230   0.15188   0.22042
     Eigenvalues ---    0.75001
 Angle between quadratic step and forces=  36.35 degrees.
 Linear search not attempted -- first point.
 B after Tr=     0.000000    0.000000    0.000000
         Rot=    1.000000   -0.000000    0.000000   -0.000000 Ang=   0.00 deg.
 Variable       Old X    -DE/DX   Delta X   Delta X   Delta X     New X
                                 (Linear)    (Quad)   (Total)
    X1        0.00000  -0.00015   0.00000   0.00313   0.00313   0.00313
    Y1       -0.00000  -0.00080   0.00000  -0.01086  -0.01086  -0.01086
    Z1       -0.00000  -0.02238   0.00000  -0.14025  -0.14025  -0.14025
    X2       -1.57416   0.00071   0.00000  -0.00078  -0.00078  -1.57494
    Y2        0.00000   0.00028   0.00000   0.00445   0.00445   0.00445
    Z2       -8.58438   0.00558   0.00000   0.00843   0.00843  -8.57595
    X3        0.00000   0.00331   0.00000   0.11574   0.11574   0.11574
    Y3       -0.00000  -0.00272   0.00000  -0.09083  -0.09083  -0.09083
    Z3        4.92561   0.01667   0.00000   0.12567   0.12567   5.05128
    X4        5.38049  -0.00388   0.00000  -0.11808  -0.11808   5.26241
    Y4       -4.37143   0.00323   0.00000   0.09724   0.09724  -4.27419
    Z4        4.71685   0.00013   0.00000   0.00615   0.00615   4.72301
         Item               Value     Threshold  Converged?
 Maximum Force            0.022377     0.000450     NO 
 RMS     Force            0.008440     0.000300     NO 
 Maximum Displacement     0.140250     0.001800     NO 
 RMS     Displacement     0.082038     0.001200     NO 
 Predicted change in Energy=-3.346044D-03
 GradGradGradGradGradGradGradGradGradGradGradGradGradGradGradGradGradGrad

 Leave Link  103 at Tue Aug  8 11:07:13 2023, MaxMem=  1610612736 cpu:               0.2 elap:               0.0
 (Enter /home/sekinelabo/g16/l9999.exe)
 1\1\GINC-SEKINELABO-XA7R-R37\Force\RB3LYP\6-311+G(d)\Na4\SEKINELABO\08
 -Aug-2023\0\\#p B3LYP/6-311+g(d) force\\Test\\0,1\Na,0.,0.,0.\Na,-0.83
 30089853,0.,-4.5426590529\Na,0.,0.,2.6065211262\Na,2.8472315512,-2.313
 2619909,2.4960518467\\Version=ES64L-G16RevB.01\State=1-A\HF=-649.17632
 34\RMSD=4.126e-09\RMSF=8.440e-03\Dipole=0.4162402,-0.2799366,0.8983736
 \Quadrupole=-0.3385269,-1.4897919,1.8283188,-2.8997512,-1.3178783,1.58
 18766\PG=C01 [X(Na4)]\\@


 IT IS BY EATING THE LIGHT OF A STAR THAT WE EXIST, 
 IN THE FINAL ANALYSIS, 
 JUST AS IT IS BY PERCEIVING THE LIGHT OF STARS
 THAT WE DEFINE THE WORLD AROUND US.

                                    -- GILBERT GROSVENOR
 Job cpu time:       0 days  0 hours  0 minutes 40.6 seconds.
 Elapsed time:       0 days  0 hours  0 minutes  2.8 seconds.
 File lengths (MBytes):  RWF=     10 Int=      0 D2E=      0 Chk=      2 Scr=      1
 Normal termination of Gaussian 16 at Tue Aug  8 11:07:13 2023.
