 Initial command:
 /home/sekinelabo/g16/l1.exe "/home/sekinelabo/g16temp/Gau-19052.inp" -scrdir="/home/sekinelabo/g16temp/"
 Entering Link 1 = /home/sekinelabo/g16/l1.exe PID=     20543.
  
 Copyright (c) 1988-2017, Gaussian, Inc.  All Rights Reserved.
  
 This is part of the Gaussian(R) 16 program.  It is based on
 the Gaussian(R) 09 system (copyright 2009, Gaussian, Inc.),
 the Gaussian(R) 03 system (copyright 2003, Gaussian, Inc.),
 the Gaussian(R) 98 system (copyright 1998, Gaussian, Inc.),
 the Gaussian(R) 94 system (copyright 1995, Gaussian, Inc.),
 the Gaussian 92(TM) system (copyright 1992, Gaussian, Inc.),
 the Gaussian 90(TM) system (copyright 1990, Gaussian, Inc.),
 the Gaussian 88(TM) system (copyright 1988, Gaussian, Inc.),
 the Gaussian 86(TM) system (copyright 1986, Carnegie Mellon
 University), and the Gaussian 82(TM) system (copyright 1983,
 Carnegie Mellon University). Gaussian is a federally registered
 trademark of Gaussian, Inc.
  
 This software contains proprietary and confidential information,
 including trade secrets, belonging to Gaussian, Inc.
  
 This software is provided under written license and may be
 used, copied, transmitted, or stored only in accord with that
 written license.
  
 The following legend is applicable only to US Government
 contracts under FAR:
  
                    RESTRICTED RIGHTS LEGEND
  
 Use, reproduction and disclosure by the US Government is
 subject to restrictions as set forth in subparagraphs (a)
 and (c) of the Commercial Computer Software - Restricted
 Rights clause in FAR 52.227-19.
  
 Gaussian, Inc.
 340 Quinnipiac St., Bldg. 40, Wallingford CT 06492
  
  
 ---------------------------------------------------------------
 Warning -- This program may not be used in any manner that
 competes with the business of Gaussian, Inc. or will provide
 assistance to any competitor of Gaussian, Inc.  The licensee
 of this program is prohibited from giving any competitor of
 Gaussian, Inc. access to this program.  By using this program,
 the user acknowledges that Gaussian, Inc. is engaged in the
 business of creating and licensing software in the field of
 computational chemistry and represents and warrants to the
 licensee that it is not a competitor of Gaussian, Inc. and that
 it will not use this program in any manner prohibited above.
 ---------------------------------------------------------------
  

 Cite this work as:
 Gaussian 16, Revision B.01,
 M. J. Frisch, G. W. Trucks, H. B. Schlegel, G. E. Scuseria, 
 M. A. Robb, J. R. Cheeseman, G. Scalmani, V. Barone, 
 G. A. Petersson, H. Nakatsuji, X. Li, M. Caricato, A. V. Marenich, 
 J. Bloino, B. G. Janesko, R. Gomperts, B. Mennucci, H. P. Hratchian, 
 J. V. Ortiz, A. F. Izmaylov, J. L. Sonnenberg, D. Williams-Young, 
 F. Ding, F. Lipparini, F. Egidi, J. Goings, B. Peng, A. Petrone, 
 T. Henderson, D. Ranasinghe, V. G. Zakrzewski, J. Gao, N. Rega, 
 G. Zheng, W. Liang, M. Hada, M. Ehara, K. Toyota, R. Fukuda, 
 J. Hasegawa, M. Ishida, T. Nakajima, Y. Honda, O. Kitao, H. Nakai, 
 T. Vreven, K. Throssell, J. A. Montgomery, Jr., J. E. Peralta, 
 F. Ogliaro, M. J. Bearpark, J. J. Heyd, E. N. Brothers, K. N. Kudin, 
 V. N. Staroverov, T. A. Keith, R. Kobayashi, J. Normand, 
 K. Raghavachari, A. P. Rendell, J. C. Burant, S. S. Iyengar, 
 J. Tomasi, M. Cossi, J. M. Millam, M. Klene, C. Adamo, R. Cammi, 
 J. W. Ochterski, R. L. Martin, K. Morokuma, O. Farkas, 
 J. B. Foresman, and D. J. Fox, Gaussian, Inc., Wallingford CT, 2016.
 
 ******************************************
 Gaussian 16:  ES64L-G16RevB.01 20-Dec-2017
                 8-Aug-2023 
 ******************************************
 %NProcShared=16
 Will use up to   16 processors via shared memory.
 %mem=12GB
 %Chk=checkpoint.chk
 -------------------------
 #p B3LYP/6-311+g(d) force
 -------------------------
 1/10=7,30=1,38=1/1,3;
 2/12=2,17=6,18=5,40=1/2;
 3/5=4,6=6,7=11,11=2,25=1,30=1,71=1,74=-5/1,2,3;
 4//1;
 5/5=2,38=5/2;
 6/7=2,8=2,9=2,10=2,28=1/1;
 7/29=1/1,2,3,16;
 1/10=7,30=1/3;
 99//99;
 Leave Link    1 at Tue Aug  8 11:07:20 2023, MaxMem=  1610612736 cpu:               0.2 elap:               0.0
 (Enter /home/sekinelabo/g16/l101.exe)
 ----
 Test
 ----
 Symbolic Z-matrix:
 Charge =  0 Multiplicity = 1
 Na                    0.        0.        0. 
 Na                   -2.57101   0.       -4.24414 
 Na                    0.        0.        2.87733 
 Na                    1.14382  -3.59286   3.08944 
 
 ITRead=  0  0  0  0
 MicOpt= -1 -1 -1 -1
 NAtoms=      4 NQM=        4 NQMF=       0 NMMI=      0 NMMIF=      0
                NMic=       0 NMicF=      0.
                    Isotopes and Nuclear Properties:
 (Nuclear quadrupole moments (NQMom) in fm**2, nuclear magnetic moments (NMagM)
  in nuclear magnetons)

  Atom         1           2           3           4
 IAtWgt=          23          23          23          23
 AtmWgt=  22.9897697  22.9897697  22.9897697  22.9897697
 NucSpn=           3           3           3           3
 AtZEff=  -0.0000000  -0.0000000  -0.0000000  -0.0000000
 NQMom=   10.4000000  10.4000000  10.4000000  10.4000000
 NMagM=    2.2175200   2.2175200   2.2175200   2.2175200
 AtZNuc=  11.0000000  11.0000000  11.0000000  11.0000000
 Leave Link  101 at Tue Aug  8 11:07:21 2023, MaxMem=  1610612736 cpu:               1.5 elap:               0.1
 (Enter /home/sekinelabo/g16/l103.exe)

 GradGradGradGradGradGradGradGradGradGradGradGradGradGradGradGradGradGrad
 Berny optimization.
 Initialization pass.
 Trust Radius=3.00D-01 FncErr=1.00D-07 GrdErr=1.00D-07 EigMax=2.50D+02 EigMin=1.00D-04
 Number of steps in this run=      2 maximum allowed number of steps=      2.
 GradGradGradGradGradGradGradGradGradGradGradGradGradGradGradGradGradGrad

 Leave Link  103 at Tue Aug  8 11:07:21 2023, MaxMem=  1610612736 cpu:               0.1 elap:               0.0
 (Enter /home/sekinelabo/g16/l202.exe)
                          Input orientation:                          
 ---------------------------------------------------------------------
 Center     Atomic      Atomic             Coordinates (Angstroms)
 Number     Number       Type             X           Y           Z
 ---------------------------------------------------------------------
      1         11           0        0.000000    0.000000    0.000000
      2         11           0       -2.571011    0.000000   -4.244141
      3         11           0        0.000000    0.000000    2.877333
      4         11           0        1.143820   -3.592862    3.089441
 ---------------------------------------------------------------------
                    Distance matrix (angstroms):
                    1          2          3          4
     1  Na   0.000000
     2  Na   4.962139   0.000000
     3  Na   2.877333   7.571359   0.000000
     4  Na   4.874589   8.971624   3.776502   0.000000
 Stoichiometry    Na4
 Framework group  C1[X(Na4)]
 Deg. of freedom     6
 Full point group                 C1      NOp   1
 Largest Abelian subgroup         C1      NOp   1
 Largest concise Abelian subgroup C1      NOp   1
                         Standard orientation:                         
 ---------------------------------------------------------------------
 Center     Atomic      Atomic             Coordinates (Angstroms)
 Number     Number       Type             X           Y           Z
 ---------------------------------------------------------------------
      1         11           0       -0.500919   -0.680669    0.636657
      2         11           0       -5.206448    0.635670   -0.228256
      3         11           0        2.007971   -1.656680   -0.379178
      4         11           0        3.699396    1.701680   -0.029223
 ---------------------------------------------------------------------
 Rotational constants (GHZ):           3.0919189           0.4812600           0.4261617
 Leave Link  202 at Tue Aug  8 11:07:21 2023, MaxMem=  1610612736 cpu:               0.0 elap:               0.0
 (Enter /home/sekinelabo/g16/l301.exe)
 Standard basis: 6-311+G(d) (5D, 7F)
 Ernie: Thresh=  0.10000D-02 Tol=  0.10000D-05 Strict=F.
 There are   124 symmetry adapted cartesian basis functions of A   symmetry.
 There are   120 symmetry adapted basis functions of A   symmetry.
   120 basis functions,   200 primitive gaussians,   124 cartesian basis functions
    22 alpha electrons       22 beta electrons
       nuclear repulsion energy        80.8416404011 Hartrees.
 IExCor=  402 DFT=T Ex+Corr=B3LYP ExCW=0 ScaHFX=  0.200000
 ScaDFX=  0.800000  0.720000  1.000000  0.810000 ScalE2=  1.000000  1.000000
 IRadAn=      5 IRanWt=     -1 IRanGd=            0 ICorTp=0 IEmpDi=  4
 NAtoms=    4 NActive=    4 NUniq=    4 SFac= 1.00D+00 NAtFMM=   60 NAOKFM=F Big=F
 Integral buffers will be    131072 words long.
 Raffenetti 2 integral format.
 Two-electron integral symmetry is turned on.
 Leave Link  301 at Tue Aug  8 11:07:21 2023, MaxMem=  1610612736 cpu:               0.4 elap:               0.0
 (Enter /home/sekinelabo/g16/l302.exe)
 NPDir=0 NMtPBC=     1 NCelOv=     1 NCel=       1 NClECP=     1 NCelD=      1
         NCelK=      1 NCelE2=     1 NClLst=     1 CellRange=     0.0.
 One-electron integrals computed using PRISM.
 One-electron integral symmetry used in STVInt
 NBasis=   120 RedAO= T EigKep=  2.88D-05  NBF=   120
 NBsUse=   120 1.00D-06 EigRej= -1.00D+00 NBFU=   120
 Precomputing XC quadrature grid using
 IXCGrd= 4 IRadAn=           5 IRanWt=          -1 IRanGd=           0 AccXCQ= 0.00D+00.
 Generated NRdTot=       0 NPtTot=           0 NUsed=           0 NTot=          32
 NSgBfM=   115   115   115   115   115 MxSgAt=     4 MxSgA2=     4.
 Leave Link  302 at Tue Aug  8 11:07:21 2023, MaxMem=  1610612736 cpu:               1.3 elap:               0.1
 (Enter /home/sekinelabo/g16/l303.exe)
 DipDrv:  MaxL=1.
 Leave Link  303 at Tue Aug  8 11:07:21 2023, MaxMem=  1610612736 cpu:               0.3 elap:               0.0
 (Enter /home/sekinelabo/g16/l401.exe)
 ExpMin= 7.60D-03 ExpMax= 3.62D+04 ExpMxC= 1.21D+03 IAcc=3 IRadAn=         5 AccDes= 0.00D+00
 Harris functional with IExCor=  402 and IRadAn=       5 diagonalized for initial guess.
 HarFok:  IExCor=  402 AccDes= 0.00D+00 IRadAn=         5 IDoV= 1 UseB2=F ITyADJ=14
 ICtDFT=  3500011 ScaDFX=  1.000000  1.000000  1.000000  1.000000
 FoFCou: FMM=F IPFlag=           0 FMFlag=      100000 FMFlg1=           0
         NFxFlg=           0 DoJE=T BraDBF=F KetDBF=T FulRan=T
         wScrn=  0.000000 ICntrl=       500 IOpCl=  0 I1Cent=   200000004 NGrid=           0
         NMat0=    1 NMatS0=      1 NMatT0=    0 NMatD0=    1 NMtDS0=    0 NMtDT0=    0
 Petite list used in FoFCou.
 Harris En= -649.051795573515    
 JPrj=0 DoOrth=F DoCkMO=F.
 Leave Link  401 at Tue Aug  8 11:07:21 2023, MaxMem=  1610612736 cpu:               2.0 elap:               0.1
 (Enter /home/sekinelabo/g16/l502.exe)
 Keep R1 ints in memory in canonical form, NReq=41581762.
 FoFCou: FMM=F IPFlag=           0 FMFlag=           0 FMFlg1=           0
         NFxFlg=           0 DoJE=F BraDBF=F KetDBF=F FulRan=T
         wScrn=  0.000000 ICntrl=       600 IOpCl=  0 I1Cent=           0 NGrid=           0
         NMat0=    1 NMatS0=   7260 NMatT0=    0 NMatD0=    1 NMtDS0=    0 NMtDT0=    0
 Symmetry not used in FoFCou.
 Two-electron integral symmetry not used.
 Closed shell SCF:
 Using DIIS extrapolation, IDIIS=  1040.
 NGot=  1610612736 LenX=  1584221380 LenY=  1584205563
 Requested convergence on RMS density matrix=1.00D-08 within 128 cycles.
 Requested convergence on MAX density matrix=1.00D-06.
 Requested convergence on             energy=1.00D-06.
 No special actions if energy rises.

 Cycle   1  Pass 1  IDiag  1:
 E= -649.160486815178    
 DIIS: error= 1.34D-02 at cycle   1 NSaved=   1.
 NSaved= 1 IEnMin= 1 EnMin= -649.160486815178     IErMin= 1 ErrMin= 1.34D-02
 ErrMax= 1.34D-02  0.00D+00 EMaxC= 1.00D-01 BMatC= 2.70D-02 BMatP= 2.70D-02
 IDIUse=3 WtCom= 8.66D-01 WtEn= 1.34D-01
 Coeff-Com:  0.100D+01
 Coeff-En:   0.100D+01
 Coeff:      0.100D+01
 Gap=     0.011 Goal=   None    Shift=    0.000
 GapD=    0.011 DampG=0.250 DampE=0.500 DampFc=0.2500 IDamp=-1.
 Damping current iteration by 2.50D-01
 RMSDP=7.16D-03 MaxDP=3.36D-01              OVMax= 6.16D-01

 Cycle   2  Pass 1  IDiag  1:
 E= -649.163589358903     Delta-E=       -0.003102543725 Rises=F Damp=T
 DIIS: error= 9.28D-03 at cycle   2 NSaved=   2.
 NSaved= 2 IEnMin= 2 EnMin= -649.163589358903     IErMin= 2 ErrMin= 9.28D-03
 ErrMax= 9.28D-03  0.00D+00 EMaxC= 1.00D-01 BMatC= 1.02D-02 BMatP= 2.70D-02
 IDIUse=3 WtCom= 9.07D-01 WtEn= 9.28D-02
 Coeff-Com: -0.986D+00 0.199D+01
 Coeff-En:   0.327D+00 0.673D+00
 Coeff:     -0.865D+00 0.186D+01
 Gap=    -0.015 Goal=   None    Shift=    0.000
 RMSDP=6.29D-03 MaxDP=3.55D-01 DE=-3.10D-03 OVMax= 6.80D-01

 Cycle   3  Pass 1  IDiag  1:
 E= -649.068554039801     Delta-E=        0.095035319102 Rises=F Damp=F
 DIIS: error= 1.23D-02 at cycle   3 NSaved=   3.
 NSaved= 3 IEnMin= 2 EnMin= -649.163589358903     IErMin= 2 ErrMin= 9.28D-03
 ErrMax= 1.23D-02  0.00D+00 EMaxC= 1.00D-01 BMatC= 9.86D-03 BMatP= 1.02D-02
 IDIUse=3 WtCom= 8.77D-01 WtEn= 1.23D-01
 Rare condition: small coef for last iteration:  0.000D+00
 Coeff-Com: -0.691D+00 0.131D+01 0.376D+00
 Coeff-En:   0.250D+00 0.716D+00 0.334D-01
 Coeff:     -0.691D+00 0.131D+01 0.376D+00
 Gap=     0.042 Goal=   None    Shift=    0.000
 RMSDP=8.26D-03 MaxDP=5.26D-01 DE= 9.50D-02 OVMax= 7.80D-01

 Cycle   4  Pass 1  IDiag  1:
 E= -649.130422609933     Delta-E=       -0.061868570131 Rises=F Damp=F
 DIIS: error= 1.03D-02 at cycle   4 NSaved=   4.
 NSaved= 4 IEnMin= 2 EnMin= -649.163589358903     IErMin= 2 ErrMin= 9.28D-03
 ErrMax= 1.03D-02  0.00D+00 EMaxC= 1.00D-01 BMatC= 4.84D-03 BMatP= 9.86D-03
 IDIUse=3 WtCom= 8.97D-01 WtEn= 1.03D-01
 EnCoef did   100 forward-backward iterations
 Coeff-Com: -0.108D+00 0.297D+00 0.352D+00 0.459D+00
 Coeff-En:   0.699D+00 0.201D-01 0.222D-03 0.280D+00
 Coeff:     -0.251D-01 0.269D+00 0.316D+00 0.440D+00
 Gap=     0.015 Goal=   None    Shift=    0.000
 RMSDP=4.11D-03 MaxDP=1.83D-01 DE=-6.19D-02 OVMax= 4.20D-01

 Cycle   5  Pass 1  IDiag  1:
 E= -649.175937753401     Delta-E=       -0.045515143469 Rises=F Damp=F
 DIIS: error= 1.86D-03 at cycle   5 NSaved=   5.
 NSaved= 5 IEnMin= 5 EnMin= -649.175937753401     IErMin= 5 ErrMin= 1.86D-03
 ErrMax= 1.86D-03  0.00D+00 EMaxC= 1.00D-01 BMatC= 3.17D-04 BMatP= 4.84D-03
 IDIUse=3 WtCom= 9.81D-01 WtEn= 1.86D-02
 Coeff-Com:  0.126D+00-0.149D+00-0.144D-01 0.188D+00 0.849D+00
 Coeff-En:   0.000D+00 0.000D+00 0.000D+00 0.797D-01 0.920D+00
 Coeff:      0.124D+00-0.146D+00-0.141D-01 0.186D+00 0.850D+00
 Gap=     0.024 Goal=   None    Shift=    0.000
 RMSDP=1.03D-03 MaxDP=4.09D-02 DE=-4.55D-02 OVMax= 6.03D-02

 Cycle   6  Pass 1  IDiag  1:
 E= -649.177438786624     Delta-E=       -0.001501033223 Rises=F Damp=F
 DIIS: error= 4.99D-04 at cycle   6 NSaved=   6.
 NSaved= 6 IEnMin= 6 EnMin= -649.177438786624     IErMin= 6 ErrMin= 4.99D-04
 ErrMax= 4.99D-04  0.00D+00 EMaxC= 1.00D-01 BMatC= 3.68D-05 BMatP= 3.17D-04
 IDIUse=3 WtCom= 9.95D-01 WtEn= 4.99D-03
 Coeff-Com:  0.314D-01-0.391D-01-0.269D-01 0.574D-01 0.284D+00 0.693D+00
 Coeff-En:   0.000D+00 0.000D+00 0.000D+00 0.000D+00 0.000D+00 0.100D+01
 Coeff:      0.313D-01-0.389D-01-0.267D-01 0.571D-01 0.283D+00 0.694D+00
 Gap=     0.026 Goal=   None    Shift=    0.000
 RMSDP=5.16D-04 MaxDP=2.29D-02 DE=-1.50D-03 OVMax= 4.30D-02

 Cycle   7  Pass 1  IDiag  1:
 E= -649.176833883107     Delta-E=        0.000604903517 Rises=F Damp=F
 DIIS: error= 1.28D-03 at cycle   7 NSaved=   7.
 NSaved= 7 IEnMin= 6 EnMin= -649.177438786624     IErMin= 6 ErrMin= 4.99D-04
 ErrMax= 1.28D-03  0.00D+00 EMaxC= 1.00D-01 BMatC= 8.78D-05 BMatP= 3.68D-05
 IDIUse=3 WtCom= 9.95D-01 WtEn= 4.99D-03
 Coeff-Com: -0.181D-01 0.253D-01-0.196D-01 0.496D-01 0.282D-01 0.451D+00
 Coeff-Com:  0.483D+00
 Coeff-En:   0.000D+00 0.000D+00 0.000D+00 0.000D+00 0.000D+00 0.989D+00
 Coeff-En:   0.114D-01
 Coeff:     -0.180D-01 0.252D-01-0.195D-01 0.494D-01 0.281D-01 0.454D+00
 Coeff:      0.481D+00
 Gap=     0.026 Goal=   None    Shift=    0.000
 RMSDP=2.10D-04 MaxDP=8.77D-03 DE= 6.05D-04 OVMax= 1.44D-02

 Cycle   8  Pass 1  IDiag  1:
 E= -649.177183300792     Delta-E=       -0.000349417685 Rises=F Damp=F
 DIIS: error= 1.10D-03 at cycle   8 NSaved=   8.
 NSaved= 8 IEnMin= 6 EnMin= -649.177438786624     IErMin= 6 ErrMin= 4.99D-04
 ErrMax= 1.10D-03  0.00D+00 EMaxC= 1.00D-01 BMatC= 4.31D-05 BMatP= 3.68D-05
 IDIUse=3 WtCom= 9.95D-01 WtEn= 4.99D-03
 Coeff-Com: -0.390D-01 0.532D-01-0.118D-01 0.451D-01-0.905D-01 0.138D+00
 Coeff-Com:  0.978D-01 0.808D+00
 Coeff-En:   0.000D+00 0.000D+00 0.000D+00 0.000D+00 0.000D+00 0.953D+00
 Coeff-En:   0.000D+00 0.472D-01
 Coeff:     -0.388D-01 0.529D-01-0.117D-01 0.449D-01-0.901D-01 0.142D+00
 Coeff:      0.973D-01 0.804D+00
 Gap=     0.025 Goal=   None    Shift=    0.000
 RMSDP=1.26D-04 MaxDP=6.26D-03 DE=-3.49D-04 OVMax= 1.31D-02

 Cycle   9  Pass 1  IDiag  1:
 E= -649.177428834184     Delta-E=       -0.000245533392 Rises=F Damp=F
 DIIS: error= 6.51D-04 at cycle   9 NSaved=   9.
 NSaved= 9 IEnMin= 6 EnMin= -649.177438786624     IErMin= 6 ErrMin= 4.99D-04
 ErrMax= 6.51D-04  0.00D+00 EMaxC= 1.00D-01 BMatC= 1.64D-05 BMatP= 3.68D-05
 IDIUse=3 WtCom= 9.95D-01 WtEn= 4.99D-03
 Coeff-Com: -0.246D-01 0.331D-01 0.187D-03 0.139D-01-0.834D-01-0.798D-01
 Coeff-Com: -0.234D+00-0.219D+00 0.159D+01
 Coeff-En:   0.000D+00 0.000D+00 0.000D+00 0.000D+00 0.000D+00 0.539D+00
 Coeff-En:   0.000D+00 0.000D+00 0.461D+00
 Coeff:     -0.245D-01 0.329D-01 0.187D-03 0.138D-01-0.829D-01-0.767D-01
 Coeff:     -0.233D+00-0.218D+00 0.159D+01
 Gap=     0.025 Goal=   None    Shift=    0.000
 RMSDP=1.55D-04 MaxDP=7.61D-03 DE=-2.46D-04 OVMax= 1.57D-02

 Cycle  10  Pass 1  IDiag  1:
 E= -649.177563000508     Delta-E=       -0.000134166324 Rises=F Damp=F
 DIIS: error= 1.40D-04 at cycle  10 NSaved=  10.
 NSaved=10 IEnMin=10 EnMin= -649.177563000508     IErMin=10 ErrMin= 1.40D-04
 ErrMax= 1.40D-04  0.00D+00 EMaxC= 1.00D-01 BMatC= 7.45D-07 BMatP= 1.64D-05
 IDIUse=3 WtCom= 9.99D-01 WtEn= 1.40D-03
 Coeff-Com: -0.414D-02 0.557D-02 0.959D-03 0.205D-02-0.135D-01-0.837D-02
 Coeff-Com: -0.595D-01-0.238D+00 0.431D+00 0.884D+00
 Coeff-En:   0.000D+00 0.000D+00 0.000D+00 0.000D+00 0.000D+00 0.000D+00
 Coeff-En:   0.000D+00 0.000D+00 0.000D+00 0.100D+01
 Coeff:     -0.414D-02 0.557D-02 0.958D-03 0.205D-02-0.134D-01-0.836D-02
 Coeff:     -0.594D-01-0.238D+00 0.430D+00 0.884D+00
 Gap=     0.025 Goal=   None    Shift=    0.000
 RMSDP=5.00D-05 MaxDP=2.32D-03 DE=-1.34D-04 OVMax= 5.07D-03

 Cycle  11  Pass 1  IDiag  1:
 E= -649.177569678736     Delta-E=       -0.000006678229 Rises=F Damp=F
 DIIS: error= 1.37D-05 at cycle  11 NSaved=  11.
 NSaved=11 IEnMin=11 EnMin= -649.177569678736     IErMin=11 ErrMin= 1.37D-05
 ErrMax= 1.37D-05  0.00D+00 EMaxC= 1.00D-01 BMatC= 1.91D-08 BMatP= 7.45D-07
 IDIUse=1 WtCom= 1.00D+00 WtEn= 0.00D+00
 Coeff-Com:  0.515D-03-0.679D-03 0.209D-03-0.694D-04 0.261D-02 0.851D-02
 Coeff-Com:  0.708D-02-0.632D-01 0.206D-01 0.319D+00 0.705D+00
 Coeff:      0.515D-03-0.679D-03 0.209D-03-0.694D-04 0.261D-02 0.851D-02
 Coeff:      0.708D-02-0.632D-01 0.206D-01 0.319D+00 0.705D+00
 Gap=     0.025 Goal=   None    Shift=    0.000
 RMSDP=7.17D-06 MaxDP=2.34D-04 DE=-6.68D-06 OVMax= 2.47D-04

 Cycle  12  Pass 1  IDiag  1:
 E= -649.177569736066     Delta-E=       -0.000000057330 Rises=F Damp=F
 DIIS: error= 1.51D-05 at cycle  12 NSaved=  12.
 NSaved=12 IEnMin=12 EnMin= -649.177569736066     IErMin=11 ErrMin= 1.37D-05
 ErrMax= 1.51D-05  0.00D+00 EMaxC= 1.00D-01 BMatC= 8.10D-09 BMatP= 1.91D-08
 IDIUse=1 WtCom= 1.00D+00 WtEn= 0.00D+00
 Coeff-Com:  0.416D-03-0.556D-03-0.462D-04-0.126D-03 0.182D-02 0.460D-02
 Coeff-Com:  0.700D-02-0.610D-03-0.164D-01 0.582D-01 0.246D+00 0.700D+00
 Coeff:      0.416D-03-0.556D-03-0.462D-04-0.126D-03 0.182D-02 0.460D-02
 Coeff:      0.700D-02-0.610D-03-0.164D-01 0.582D-01 0.246D+00 0.700D+00
 Gap=     0.025 Goal=   None    Shift=    0.000
 RMSDP=4.80D-06 MaxDP=2.14D-04 DE=-5.73D-08 OVMax= 4.53D-04

 Cycle  13  Pass 1  IDiag  1:
 E= -649.177569808549     Delta-E=       -0.000000072483 Rises=F Damp=F
 DIIS: error= 5.45D-07 at cycle  13 NSaved=  13.
 NSaved=13 IEnMin=13 EnMin= -649.177569808549     IErMin=13 ErrMin= 5.45D-07
 ErrMax= 5.45D-07  0.00D+00 EMaxC= 1.00D-01 BMatC= 2.65D-11 BMatP= 8.10D-09
 IDIUse=1 WtCom= 1.00D+00 WtEn= 0.00D+00
 Coeff-Com:  0.213D-04-0.280D-04 0.229D-05-0.600D-04-0.233D-04-0.594D-03
 Coeff-Com: -0.722D-03 0.583D-02-0.216D-02-0.185D-01 0.964D-02 0.111D+00
 Coeff-Com:  0.896D+00
 Coeff:      0.213D-04-0.280D-04 0.229D-05-0.600D-04-0.233D-04-0.594D-03
 Coeff:     -0.722D-03 0.583D-02-0.216D-02-0.185D-01 0.964D-02 0.111D+00
 Coeff:      0.896D+00
 Gap=     0.025 Goal=   None    Shift=    0.000
 RMSDP=8.31D-07 MaxDP=2.27D-05 DE=-7.25D-08 OVMax= 4.02D-05

 Cycle  14  Pass 1  IDiag  1:
 E= -649.177569808417     Delta-E=        0.000000000132 Rises=F Damp=F
 DIIS: error= 9.26D-07 at cycle  14 NSaved=  14.
 NSaved=14 IEnMin=13 EnMin= -649.177569808549     IErMin=13 ErrMin= 5.45D-07
 ErrMax= 9.26D-07  0.00D+00 EMaxC= 1.00D-01 BMatC= 3.81D-11 BMatP= 2.65D-11
 IDIUse=1 WtCom= 1.00D+00 WtEn= 0.00D+00
 Coeff-Com: -0.797D-05 0.104D-04-0.163D-05-0.103D-04-0.207D-04-0.147D-03
 Coeff-Com: -0.156D-03 0.105D-02 0.476D-03-0.443D-02-0.117D-01-0.592D-02
 Coeff-Com:  0.147D+00 0.874D+00
 Coeff:     -0.797D-05 0.104D-04-0.163D-05-0.103D-04-0.207D-04-0.147D-03
 Coeff:     -0.156D-03 0.105D-02 0.476D-03-0.443D-02-0.117D-01-0.592D-02
 Coeff:      0.147D+00 0.874D+00
 Gap=     0.025 Goal=   None    Shift=    0.000
 RMSDP=3.24D-07 MaxDP=1.53D-05 DE= 1.32D-10 OVMax= 2.98D-05

 Cycle  15  Pass 1  IDiag  1:
 E= -649.177569808742     Delta-E=       -0.000000000324 Rises=F Damp=F
 DIIS: error= 3.23D-08 at cycle  15 NSaved=  15.
 NSaved=15 IEnMin=15 EnMin= -649.177569808742     IErMin=15 ErrMin= 3.23D-08
 ErrMax= 3.23D-08  0.00D+00 EMaxC= 1.00D-01 BMatC= 1.02D-13 BMatP= 2.65D-11
 IDIUse=1 WtCom= 1.00D+00 WtEn= 0.00D+00
 Coeff-Com: -0.599D-05 0.793D-05 0.151D-06-0.402D-06-0.201D-04-0.289D-04
 Coeff-Com: -0.505D-04-0.724D-05 0.238D-03-0.178D-03-0.416D-02-0.106D-01
 Coeff-Com: -0.108D-01 0.186D+00 0.840D+00
 Coeff:     -0.599D-05 0.793D-05 0.151D-06-0.402D-06-0.201D-04-0.289D-04
 Coeff:     -0.505D-04-0.724D-05 0.238D-03-0.178D-03-0.416D-02-0.106D-01
 Coeff:     -0.108D-01 0.186D+00 0.840D+00
 Gap=     0.025 Goal=   None    Shift=    0.000
 RMSDP=3.12D-08 MaxDP=1.26D-06 DE=-3.24D-10 OVMax= 1.46D-06

 Cycle  16  Pass 1  IDiag  1:
 E= -649.177569808746     Delta-E=       -0.000000000004 Rises=F Damp=F
 DIIS: error= 8.78D-09 at cycle  16 NSaved=  16.
 NSaved=16 IEnMin=16 EnMin= -649.177569808746     IErMin=16 ErrMin= 8.78D-09
 ErrMax= 8.78D-09  0.00D+00 EMaxC= 1.00D-01 BMatC= 6.22D-15 BMatP= 1.02D-13
 IDIUse=1 WtCom= 1.00D+00 WtEn= 0.00D+00
 Coeff-Com: -0.233D-07 0.108D-07 0.134D-06 0.260D-06-0.107D-05 0.748D-05
 Coeff-Com:  0.189D-04-0.810D-04-0.246D-04 0.278D-03 0.437D-03-0.113D-02
 Coeff-Com: -0.657D-02-0.308D-01 0.113D+00 0.925D+00
 Coeff:     -0.233D-07 0.108D-07 0.134D-06 0.260D-06-0.107D-05 0.748D-05
 Coeff:      0.189D-04-0.810D-04-0.246D-04 0.278D-03 0.437D-03-0.113D-02
 Coeff:     -0.657D-02-0.308D-01 0.113D+00 0.925D+00
 Gap=     0.025 Goal=   None    Shift=    0.000
 RMSDP=8.32D-09 MaxDP=2.19D-07 DE=-4.21D-12 OVMax= 4.14D-07

 SCF Done:  E(RB3LYP) =  -649.177569809     A.U. after   16 cycles
            NFock= 16  Conv=0.83D-08     -V/T= 2.0029
 KE= 6.472884765826D+02 PE=-1.720644769705D+03 EE= 3.433370829126D+02
 Leave Link  502 at Tue Aug  8 11:07:22 2023, MaxMem=  1610612736 cpu:              23.3 elap:               1.7
 (Enter /home/sekinelabo/g16/l601.exe)
 Copying SCF densities to generalized density rwf, IOpCl= 0 IROHF=0.

 **********************************************************************

            Population analysis using the SCF Density.

 **********************************************************************

 Orbital symmetries:
       Occupied  (A) (A) (A) (A) (A) (A) (A) (A) (A) (A) (A) (A)
                 (A) (A) (A) (A) (A) (A) (A) (A) (A) (A)
       Virtual   (A) (A) (A) (A) (A) (A) (A) (A) (A) (A) (A) (A)
                 (A) (A) (A) (A) (A) (A) (A) (A) (A) (A) (A) (A)
                 (A) (A) (A) (A) (A) (A) (A) (A) (A) (A) (A) (A)
                 (A) (A) (A) (A) (A) (A) (A) (A) (A) (A) (A) (A)
                 (A) (A) (A) (A) (A) (A) (A) (A) (A) (A) (A) (A)
                 (A) (A) (A) (A) (A) (A) (A) (A) (A) (A) (A) (A)
                 (A) (A) (A) (A) (A) (A) (A) (A) (A) (A) (A) (A)
                 (A) (A) (A) (A) (A) (A) (A) (A) (A) (A) (A) (A)
                 (A) (A)
 The electronic state is 1-A.
 Alpha  occ. eigenvalues --  -38.45910 -38.45401 -38.45078 -38.45032  -2.21620
 Alpha  occ. eigenvalues --   -2.21223  -2.20817  -2.20763  -1.15299  -1.15299
 Alpha  occ. eigenvalues --   -1.15245  -1.15025  -1.14876  -1.14818  -1.14488
 Alpha  occ. eigenvalues --   -1.14473  -1.14440  -1.14440  -1.14418  -1.14405
 Alpha  occ. eigenvalues --   -0.14912  -0.10816
 Alpha virt. eigenvalues --   -0.08293  -0.05308  -0.03331  -0.02911  -0.01869
 Alpha virt. eigenvalues --   -0.01322  -0.01261  -0.00628  -0.00350   0.00004
 Alpha virt. eigenvalues --    0.00286   0.00668   0.00909   0.01021   0.01253
 Alpha virt. eigenvalues --    0.01496   0.01592   0.01701   0.01921   0.02019
 Alpha virt. eigenvalues --    0.02158   0.02265   0.02409   0.02524   0.02914
 Alpha virt. eigenvalues --    0.03158   0.03475   0.03508   0.04007   0.05061
 Alpha virt. eigenvalues --    0.06279   0.07077   0.07530   0.07937   0.08186
 Alpha virt. eigenvalues --    0.08437   0.08520   0.08598   0.08918   0.09572
 Alpha virt. eigenvalues --    0.10044   0.10493   0.11504   0.12164   0.12415
 Alpha virt. eigenvalues --    0.15934   0.27972   0.28879   0.29615   0.29898
 Alpha virt. eigenvalues --    0.32253   0.34547   0.34633   0.35086   0.35178
 Alpha virt. eigenvalues --    0.35208   0.35369   0.35830   0.35999   0.37032
 Alpha virt. eigenvalues --    0.37609   0.40624   0.41908   0.42703   0.42985
 Alpha virt. eigenvalues --    0.43238   0.43585   0.43729   0.44341   0.45106
 Alpha virt. eigenvalues --    0.45334   0.45676   0.47294   0.50111   0.51001
 Alpha virt. eigenvalues --    0.51649   0.53343   0.75609   2.00862   2.03133
 Alpha virt. eigenvalues --    2.07537   2.13807   4.41619   4.42587   4.43193
 Alpha virt. eigenvalues --    4.43425   4.43591   4.43822   4.44040   4.45063
 Alpha virt. eigenvalues --    4.45325   4.46035   4.46882   4.69429  96.19888
 Alpha virt. eigenvalues --   96.22524  96.27791  96.36799
          Condensed to atoms (all electrons):
               1          2          3          4
     1  Na  11.430566   0.252226  -0.023882  -0.196907
     2  Na   0.252226  10.965565  -0.111242  -0.065678
     3  Na  -0.023882  -0.111242  10.491089   0.248208
     4  Na  -0.196907  -0.065678   0.248208  10.907326
 Mulliken charges:
               1
     1  Na  -0.462004
     2  Na  -0.040872
     3  Na   0.395826
     4  Na   0.107050
 Sum of Mulliken charges =  -0.00000
 Mulliken charges with hydrogens summed into heavy atoms:
               1
     1  Na  -0.462004
     2  Na  -0.040872
     3  Na   0.395826
     4  Na   0.107050
 Electronic spatial extent (au):  <R**2>=           2137.9167
 Charge=              0.0000 electrons
 Dipole moment (field-independent basis, Debye):
    X=              2.2603    Y=              0.2258    Z=             -0.1185  Tot=              2.2746
 Quadrupole moment (field-independent basis, Debye-Ang):
   XX=            -38.5316   YY=            -36.0167   ZZ=            -43.8026
   XY=             -0.6933   XZ=              0.1627   YZ=              1.5034
 Traceless Quadrupole moment (field-independent basis, Debye-Ang):
   XX=              0.9187   YY=              3.4336   ZZ=             -4.3523
   XY=             -0.6933   XZ=              0.1627   YZ=              1.5034
 Octapole moment (field-independent basis, Debye-Ang**2):
  XXX=              6.7596  YYY=             -5.2450  ZZZ=              0.3162  XYY=             37.4004
  XXY=             20.5701  XXZ=             -8.5151  XZZ=             10.1170  YZZ=             -2.7492
  YYZ=             -3.5720  XYZ=              5.3290
 Hexadecapole moment (field-independent basis, Debye-Ang**3):
 XXXX=          -2916.5272 YYYY=           -512.7594 ZZZZ=           -223.6396 XXXY=              3.7180
 XXXZ=             42.6131 YYYX=             -5.4114 YYYZ=             13.8986 ZZZX=             -0.2702
 ZZZY=              7.6665 XXYY=           -555.2079 XXZZ=           -591.9790 YYZZ=           -126.2200
 XXYZ=              7.7326 YYXZ=             -6.6743 ZZXY=             -3.8093
 N-N= 8.084164040113D+01 E-N=-1.720644768718D+03  KE= 6.472884765826D+02
 No NMR shielding tensors so no spin-rotation constants.
 Leave Link  601 at Tue Aug  8 11:07:23 2023, MaxMem=  1610612736 cpu:               1.1 elap:               0.1
 (Enter /home/sekinelabo/g16/l701.exe)
 ... and contract with generalized density number  0.
 Compute integral first derivatives.
 Leave Link  701 at Tue Aug  8 11:07:23 2023, MaxMem=  1610612736 cpu:               1.2 elap:               0.1
 (Enter /home/sekinelabo/g16/l702.exe)
 L702 exits ... SP integral derivatives will be done elsewhere.
 Leave Link  702 at Tue Aug  8 11:07:23 2023, MaxMem=  1610612736 cpu:               0.3 elap:               0.0
 (Enter /home/sekinelabo/g16/l703.exe)
 Integral derivatives from FoFJK, PRISM(SPDF).
 Compute integral first derivatives, UseDBF=F ICtDFT=           0.
 Calling FoFJK, ICntrl=      2127 FMM=F ISym2X=0 I1Cent= 0 IOpClX= 0 NMat=1 NMatS=1 NMatT=0.
 FoFJK:  IHMeth= 1 ICntrl=    2127 DoSepK=F KAlg= 0 I1Cent=           0 FoldK=F
 IRaf=         0 NMat=       1 IRICut=       1 DoRegI=T DoRafI=F ISym2E= 0 IDoP0=0 IntGTp=1.
 FoFCou: FMM=F IPFlag=           0 FMFlag=      100000 FMFlg1=         800
         NFxFlg=           0 DoJE=F BraDBF=F KetDBF=F FulRan=T
         wScrn=  0.000000 ICntrl=      2127 IOpCl=  0 I1Cent=           0 NGrid=           0
         NMat0=    1 NMatS0=      1 NMatT0=    0 NMatD0=    1 NMtDS0=    0 NMtDT0=    0
 Symmetry not used in FoFCou.
 Leave Link  703 at Tue Aug  8 11:07:23 2023, MaxMem=  1610612736 cpu:               5.8 elap:               0.4
 (Enter /home/sekinelabo/g16/l716.exe)
 Dipole        = 8.89266338D-01 8.88368510D-02-4.66128088D-02
 ***** Axes restored to original set *****
 -------------------------------------------------------------------
 Center     Atomic                   Forces (Hartrees/Bohr)
 Number     Number              X              Y              Z
 -------------------------------------------------------------------
      1       11          -0.002525589   -0.000920214   -0.011839314
      2       11           0.002659600    0.000243816    0.004413696
      3       11           0.001342809   -0.004510396    0.007985865
      4       11          -0.001476820    0.005186795   -0.000560247
 -------------------------------------------------------------------
 Cartesian Forces:  Max     0.011839314 RMS     0.004910253
 Z-matrix is all fixed cartesians, so copy forces.
 Force constants in Cartesian coordinates: 
                1             2             3             4             5 
      1  0.778162D-03
      2 -0.244429D-02  0.767778D-02
      3  0.000000D+00  0.000000D+00  0.453318D-01
      4  0.000000D+00  0.000000D+00  0.000000D+00  0.100000D+01
      5  0.000000D+00  0.000000D+00  0.000000D+00  0.000000D+00  0.100000D+01
      6  0.000000D+00  0.000000D+00  0.000000D+00  0.000000D+00  0.000000D+00
      7 -0.811462D-03  0.254889D-02  0.000000D+00  0.000000D+00  0.000000D+00
      8  0.254889D-02 -0.800633D-02  0.000000D+00  0.000000D+00  0.000000D+00
      9  0.195133D-02 -0.612933D-02 -0.453318D-01  0.000000D+00  0.000000D+00
     10  0.332995D-04 -0.104597D-03  0.000000D+00  0.000000D+00  0.000000D+00
     11 -0.104597D-03  0.328551D-03  0.000000D+00  0.000000D+00  0.000000D+00
     12 -0.195133D-02  0.612933D-02  0.000000D+00  0.000000D+00  0.000000D+00
                6             7             8             9            10 
      6  0.100000D+01
      7  0.000000D+00  0.206780D-02
      8  0.000000D+00 -0.649517D-02  0.204020D-01
      9  0.000000D+00 -0.180830D-02  0.568006D-02  0.502669D-01
     10  0.000000D+00 -0.125633D-02  0.394628D-02 -0.143031D-03  0.122304D-02
     11  0.000000D+00  0.394628D-02 -0.123957D-01  0.449275D-03 -0.384168D-02
     12  0.000000D+00  0.180830D-02 -0.568006D-02 -0.493518D-02  0.143031D-03
               11            12 
     11  0.120671D-01
     12 -0.449275D-03  0.493518D-02
 Leave Link  716 at Tue Aug  8 11:07:23 2023, MaxMem=  1610612736 cpu:               0.3 elap:               0.0
 (Enter /home/sekinelabo/g16/l103.exe)

 GradGradGradGradGradGradGradGradGradGradGradGradGradGradGradGradGradGrad
 Berny optimization.
 Search for a local minimum.
 Step number   1 out of a maximum of    2
 All quantities printed in internal units (Hartrees-Bohrs-Radians)
 Second derivative matrix not updated -- first step.
 The second derivative matrix:
                          X1        Y1        Z1        X2        Y2
           X1           0.00078
           Y1          -0.00244   0.00768
           Z1          -0.00000   0.00000   0.04533
           X2           0.00000   0.00000   0.00000   1.00000
           Y2           0.00000   0.00000   0.00000  -0.00000   1.00000
           Z2           0.00000   0.00000   0.00000   0.00000  -0.00000
           X3          -0.00081   0.00255   0.00000   0.00000   0.00000
           Y3           0.00255  -0.00801   0.00000   0.00000   0.00000
           Z3           0.00195  -0.00613  -0.04533   0.00000   0.00000
           X4           0.00003  -0.00010   0.00000   0.00000   0.00000
           Y4          -0.00010   0.00033   0.00000   0.00000   0.00000
           Z4          -0.00195   0.00613  -0.00000   0.00000   0.00000
                          Z2        X3        Y3        Z3        X4
           Z2           1.00000
           X3           0.00000   0.00207
           Y3           0.00000  -0.00650   0.02040
           Z3           0.00000  -0.00181   0.00568   0.05027
           X4           0.00000  -0.00126   0.00395  -0.00014   0.00122
           Y4           0.00000   0.00395  -0.01240   0.00045  -0.00384
           Z4           0.00000   0.00181  -0.00568  -0.00494   0.00014
                          Y4        Z4
           Y4           0.01207
           Z4          -0.00045   0.00494
 ITU=  0
     Eigenvalues ---    0.01466   0.03608   0.09401   0.09591   0.21201
     Eigenvalues ---    0.75000
 Angle between quadratic step and forces=  37.20 degrees.
 Linear search not attempted -- first point.
 B after Tr=     0.000000    0.000000    0.000000
         Rot=    1.000000    0.000000    0.000000    0.000000 Ang=   0.00 deg.
 Variable       Old X    -DE/DX   Delta X   Delta X   Delta X     New X
                                 (Linear)    (Quad)   (Total)
    X1       -0.00000  -0.00253   0.00000  -0.01059  -0.01059  -0.01059
    Y1       -0.00000  -0.00092   0.00000  -0.02828  -0.02828  -0.02828
    Z1        0.00000  -0.01184   0.00000  -0.09919  -0.09919  -0.09919
    X2       -4.85851   0.00266   0.00000   0.00826   0.00826  -4.85024
    Y2        0.00000   0.00024   0.00000   0.00416   0.00416   0.00416
    Z2       -8.02026   0.00441   0.00000   0.00439   0.00439  -8.01588
    X3        0.00000   0.00134   0.00000   0.05657   0.05657   0.05657
    Y3        0.00000  -0.00451   0.00000  -0.15562  -0.15562  -0.15562
    Z3        5.43737   0.00799   0.00000   0.11981   0.11981   5.55718
    X4        2.16151  -0.00148   0.00000  -0.05424  -0.05424   2.10726
    Y4       -6.78952   0.00519   0.00000   0.17974   0.17974  -6.60978
    Z4        5.83820  -0.00056   0.00000  -0.02501  -0.02501   5.81319
         Item               Value     Threshold  Converged?
 Maximum Force            0.011839     0.000450     NO 
 RMS     Force            0.004910     0.000300     NO 
 Maximum Displacement     0.179740     0.001800     NO 
 RMS     Displacement     0.085880     0.001200     NO 
 Predicted change in Energy=-2.015282D-03
 GradGradGradGradGradGradGradGradGradGradGradGradGradGradGradGradGradGrad

 Leave Link  103 at Tue Aug  8 11:07:23 2023, MaxMem=  1610612736 cpu:               0.2 elap:               0.0
 (Enter /home/sekinelabo/g16/l9999.exe)
 1\1\GINC-SEKINELABO-XA7R-R37\Force\RB3LYP\6-311+G(d)\Na4\SEKINELABO\08
 -Aug-2023\0\\#p B3LYP/6-311+g(d) force\\Test\\0,1\Na,0.,0.,0.\Na,-2.57
 10106891,0.,-4.2441406931\Na,0.,0.,2.8773327558\Na,1.143820164,-3.5928
 615442,3.0894405081\\Version=ES64L-G16RevB.01\State=1-A\HF=-649.177569
 8\RMSD=8.317e-09\RMSF=4.910e-03\Dipole=0.3089739,-0.3538082,0.7617179\
 Quadrupole=-2.457713,1.5498783,0.9078347,-1.4963576,1.000975,1.5434055
 \PG=C01 [X(Na4)]\\@


 The hours that make us happy make us wise.
                         -- John Masefield
 Job cpu time:       0 days  0 hours  0 minutes 38.6 seconds.
 Elapsed time:       0 days  0 hours  0 minutes  2.6 seconds.
 File lengths (MBytes):  RWF=     10 Int=      0 D2E=      0 Chk=      2 Scr=      1
 Normal termination of Gaussian 16 at Tue Aug  8 11:07:23 2023.
