 Initial command:
 /home/sekinelabo/g16/l1.exe "/home/sekinelabo/g16temp/Gau-19052.inp" -scrdir="/home/sekinelabo/g16temp/"
 Entering Link 1 = /home/sekinelabo/g16/l1.exe PID=     19054.
  
 Copyright (c) 1988-2017, Gaussian, Inc.  All Rights Reserved.
  
 This is part of the Gaussian(R) 16 program.  It is based on
 the Gaussian(R) 09 system (copyright 2009, Gaussian, Inc.),
 the Gaussian(R) 03 system (copyright 2003, Gaussian, Inc.),
 the Gaussian(R) 98 system (copyright 1998, Gaussian, Inc.),
 the Gaussian(R) 94 system (copyright 1995, Gaussian, Inc.),
 the Gaussian 92(TM) system (copyright 1992, Gaussian, Inc.),
 the Gaussian 90(TM) system (copyright 1990, Gaussian, Inc.),
 the Gaussian 88(TM) system (copyright 1988, Gaussian, Inc.),
 the Gaussian 86(TM) system (copyright 1986, Carnegie Mellon
 University), and the Gaussian 82(TM) system (copyright 1983,
 Carnegie Mellon University). Gaussian is a federally registered
 trademark of Gaussian, Inc.
  
 This software contains proprietary and confidential information,
 including trade secrets, belonging to Gaussian, Inc.
  
 This software is provided under written license and may be
 used, copied, transmitted, or stored only in accord with that
 written license.
  
 The following legend is applicable only to US Government
 contracts under FAR:
  
                    RESTRICTED RIGHTS LEGEND
  
 Use, reproduction and disclosure by the US Government is
 subject to restrictions as set forth in subparagraphs (a)
 and (c) of the Commercial Computer Software - Restricted
 Rights clause in FAR 52.227-19.
  
 Gaussian, Inc.
 340 Quinnipiac St., Bldg. 40, Wallingford CT 06492
  
  
 ---------------------------------------------------------------
 Warning -- This program may not be used in any manner that
 competes with the business of Gaussian, Inc. or will provide
 assistance to any competitor of Gaussian, Inc.  The licensee
 of this program is prohibited from giving any competitor of
 Gaussian, Inc. access to this program.  By using this program,
 the user acknowledges that Gaussian, Inc. is engaged in the
 business of creating and licensing software in the field of
 computational chemistry and represents and warrants to the
 licensee that it is not a competitor of Gaussian, Inc. and that
 it will not use this program in any manner prohibited above.
 ---------------------------------------------------------------
  

 Cite this work as:
 Gaussian 16, Revision B.01,
 M. J. Frisch, G. W. Trucks, H. B. Schlegel, G. E. Scuseria, 
 M. A. Robb, J. R. Cheeseman, G. Scalmani, V. Barone, 
 G. A. Petersson, H. Nakatsuji, X. Li, M. Caricato, A. V. Marenich, 
 J. Bloino, B. G. Janesko, R. Gomperts, B. Mennucci, H. P. Hratchian, 
 J. V. Ortiz, A. F. Izmaylov, J. L. Sonnenberg, D. Williams-Young, 
 F. Ding, F. Lipparini, F. Egidi, J. Goings, B. Peng, A. Petrone, 
 T. Henderson, D. Ranasinghe, V. G. Zakrzewski, J. Gao, N. Rega, 
 G. Zheng, W. Liang, M. Hada, M. Ehara, K. Toyota, R. Fukuda, 
 J. Hasegawa, M. Ishida, T. Nakajima, Y. Honda, O. Kitao, H. Nakai, 
 T. Vreven, K. Throssell, J. A. Montgomery, Jr., J. E. Peralta, 
 F. Ogliaro, M. J. Bearpark, J. J. Heyd, E. N. Brothers, K. N. Kudin, 
 V. N. Staroverov, T. A. Keith, R. Kobayashi, J. Normand, 
 K. Raghavachari, A. P. Rendell, J. C. Burant, S. S. Iyengar, 
 J. Tomasi, M. Cossi, J. M. Millam, M. Klene, C. Adamo, R. Cammi, 
 J. W. Ochterski, R. L. Martin, K. Morokuma, O. Farkas, 
 J. B. Foresman, and D. J. Fox, Gaussian, Inc., Wallingford CT, 2016.
 
 ******************************************
 Gaussian 16:  ES64L-G16RevB.01 20-Dec-2017
                 8-Aug-2023 
 ******************************************
 %NProcShared=16
 Will use up to   16 processors via shared memory.
 %mem=12GB
 %Chk=checkpoint.chk
 -------------------------
 #p B3LYP/6-311+g(d) force
 -------------------------
 1/10=7,30=1,38=1/1,3;
 2/12=2,17=6,18=5,40=1/2;
 3/5=4,6=6,7=11,11=2,25=1,30=1,71=1,74=-5/1,2,3;
 4//1;
 5/5=2,38=5/2;
 6/7=2,8=2,9=2,10=2,28=1/1;
 7/29=1/1,2,3,16;
 1/10=7,30=1/3;
 99//99;
 Leave Link    1 at Tue Aug  8 11:07:05 2023, MaxMem=  1610612736 cpu:               0.4 elap:               0.0
 (Enter /home/sekinelabo/g16/l101.exe)
 ----
 Test
 ----
 Symbolic Z-matrix:
 Charge =  0 Multiplicity = 1
 Na                    0.        0.        0. 
 Na                   -4.69679   0.       -1.46907 
 Na                    0.        0.        5.7772 
 Na                   -1.63187  -3.72392   6.62063 
 
 ITRead=  0  0  0  0
 MicOpt= -1 -1 -1 -1
 NAtoms=      4 NQM=        4 NQMF=       0 NMMI=      0 NMMIF=      0
                NMic=       0 NMicF=      0.
                    Isotopes and Nuclear Properties:
 (Nuclear quadrupole moments (NQMom) in fm**2, nuclear magnetic moments (NMagM)
  in nuclear magnetons)

  Atom         1           2           3           4
 IAtWgt=          23          23          23          23
 AtmWgt=  22.9897697  22.9897697  22.9897697  22.9897697
 NucSpn=           3           3           3           3
 AtZEff=  -0.0000000  -0.0000000  -0.0000000  -0.0000000
 NQMom=   10.4000000  10.4000000  10.4000000  10.4000000
 NMagM=    2.2175200   2.2175200   2.2175200   2.2175200
 AtZNuc=  11.0000000  11.0000000  11.0000000  11.0000000
 Leave Link  101 at Tue Aug  8 11:07:05 2023, MaxMem=  1610612736 cpu:               1.5 elap:               0.1
 (Enter /home/sekinelabo/g16/l103.exe)

 GradGradGradGradGradGradGradGradGradGradGradGradGradGradGradGradGradGrad
 Berny optimization.
 Initialization pass.
 Trust Radius=3.00D-01 FncErr=1.00D-07 GrdErr=1.00D-07 EigMax=2.50D+02 EigMin=1.00D-04
 Number of steps in this run=      2 maximum allowed number of steps=      2.
 GradGradGradGradGradGradGradGradGradGradGradGradGradGradGradGradGradGrad

 Leave Link  103 at Tue Aug  8 11:07:05 2023, MaxMem=  1610612736 cpu:               0.2 elap:               0.0
 (Enter /home/sekinelabo/g16/l202.exe)
                          Input orientation:                          
 ---------------------------------------------------------------------
 Center     Atomic      Atomic             Coordinates (Angstroms)
 Number     Number       Type             X           Y           Z
 ---------------------------------------------------------------------
      1         11           0        0.000000    0.000000    0.000000
      2         11           0       -4.696793    0.000000   -1.469075
      3         11           0        0.000000    0.000000    5.777204
      4         11           0       -1.631872   -3.723924    6.620629
 ---------------------------------------------------------------------
                    Distance matrix (angstroms):
                    1          2          3          4
     1  Na   0.000000
     2  Na   4.921183   0.000000
     3  Na   5.777204   8.635300   0.000000
     4  Na   7.769385   9.418315   4.152347   0.000000
 Stoichiometry    Na4
 Framework group  C1[X(Na4)]
 Deg. of freedom     6
 Full point group                 C1      NOp   1
 Largest Abelian subgroup         C1      NOp   1
 Largest concise Abelian subgroup C1      NOp   1
                         Standard orientation:                         
 ---------------------------------------------------------------------
 Center     Atomic      Atomic             Coordinates (Angstroms)
 Number     Number       Type             X           Y           Z
 ---------------------------------------------------------------------
      1         11           0       -2.320025    2.088889   -1.043486
      2         11           0       -4.996045   -1.711317    0.573732
      3         11           0        2.983679    1.533134    1.178662
      4         11           0        4.332391   -1.910706   -0.708909
 ---------------------------------------------------------------------
 Rotational constants (GHZ):           1.3240096           0.3584649           0.3082780
 Leave Link  202 at Tue Aug  8 11:07:05 2023, MaxMem=  1610612736 cpu:               0.0 elap:               0.0
 (Enter /home/sekinelabo/g16/l301.exe)
 Standard basis: 6-311+G(d) (5D, 7F)
 Ernie: Thresh=  0.10000D-02 Tol=  0.10000D-05 Strict=F.
 There are   124 symmetry adapted cartesian basis functions of A   symmetry.
 There are   120 symmetry adapted basis functions of A   symmetry.
   120 basis functions,   200 primitive gaussians,   124 cartesian basis functions
    22 alpha electrons       22 beta electrons
       nuclear repulsion energy        61.9696307737 Hartrees.
 IExCor=  402 DFT=T Ex+Corr=B3LYP ExCW=0 ScaHFX=  0.200000
 ScaDFX=  0.800000  0.720000  1.000000  0.810000 ScalE2=  1.000000  1.000000
 IRadAn=      5 IRanWt=     -1 IRanGd=            0 ICorTp=0 IEmpDi=  4
 NAtoms=    4 NActive=    4 NUniq=    4 SFac= 1.00D+00 NAtFMM=   60 NAOKFM=F Big=F
 Integral buffers will be    131072 words long.
 Raffenetti 2 integral format.
 Two-electron integral symmetry is turned on.
 Leave Link  301 at Tue Aug  8 11:07:05 2023, MaxMem=  1610612736 cpu:               0.4 elap:               0.0
 (Enter /home/sekinelabo/g16/l302.exe)
 NPDir=0 NMtPBC=     1 NCelOv=     1 NCel=       1 NClECP=     1 NCelD=      1
         NCelK=      1 NCelE2=     1 NClLst=     1 CellRange=     0.0.
 One-electron integrals computed using PRISM.
 One-electron integral symmetry used in STVInt
 NBasis=   120 RedAO= T EigKep=  7.19D-04  NBF=   120
 NBsUse=   120 1.00D-06 EigRej= -1.00D+00 NBFU=   120
 Precomputing XC quadrature grid using
 IXCGrd= 4 IRadAn=           5 IRanWt=          -1 IRanGd=           0 AccXCQ= 0.00D+00.
 Generated NRdTot=       0 NPtTot=           0 NUsed=           0 NTot=          32
 NSgBfM=   112   111   111   112   112 MxSgAt=     4 MxSgA2=     4.
 Leave Link  302 at Tue Aug  8 11:07:05 2023, MaxMem=  1610612736 cpu:               1.4 elap:               0.1
 (Enter /home/sekinelabo/g16/l303.exe)
 DipDrv:  MaxL=1.
 Leave Link  303 at Tue Aug  8 11:07:05 2023, MaxMem=  1610612736 cpu:               0.3 elap:               0.0
 (Enter /home/sekinelabo/g16/l401.exe)
 ExpMin= 7.60D-03 ExpMax= 3.62D+04 ExpMxC= 1.21D+03 IAcc=3 IRadAn=         5 AccDes= 0.00D+00
 Harris functional with IExCor=  402 and IRadAn=       5 diagonalized for initial guess.
 HarFok:  IExCor=  402 AccDes= 0.00D+00 IRadAn=         5 IDoV= 1 UseB2=F ITyADJ=14
 ICtDFT=  3500011 ScaDFX=  1.000000  1.000000  1.000000  1.000000
 FoFCou: FMM=F IPFlag=           0 FMFlag=      100000 FMFlg1=           0
         NFxFlg=           0 DoJE=T BraDBF=F KetDBF=T FulRan=T
         wScrn=  0.000000 ICntrl=       500 IOpCl=  0 I1Cent=   200000004 NGrid=           0
         NMat0=    1 NMatS0=      1 NMatT0=    0 NMatD0=    1 NMtDS0=    0 NMtDT0=    0
 Petite list used in FoFCou.
 Harris En= -649.040376793973    
 JPrj=0 DoOrth=F DoCkMO=F.
 Leave Link  401 at Tue Aug  8 11:07:05 2023, MaxMem=  1610612736 cpu:               1.9 elap:               0.1
 (Enter /home/sekinelabo/g16/l502.exe)
 Keep R1 ints in memory in canonical form, NReq=41581754.
 FoFCou: FMM=F IPFlag=           0 FMFlag=           0 FMFlg1=           0
         NFxFlg=           0 DoJE=F BraDBF=F KetDBF=F FulRan=T
         wScrn=  0.000000 ICntrl=       600 IOpCl=  0 I1Cent=           0 NGrid=           0
         NMat0=    1 NMatS0=   7260 NMatT0=    0 NMatD0=    1 NMtDS0=    0 NMtDT0=    0
 Symmetry not used in FoFCou.
 Two-electron integral symmetry not used.
 Closed shell SCF:
 Using DIIS extrapolation, IDIIS=  1040.
 NGot=  1610612736 LenX=  1584221388 LenY=  1584205571
 Requested convergence on RMS density matrix=1.00D-08 within 128 cycles.
 Requested convergence on MAX density matrix=1.00D-06.
 Requested convergence on             energy=1.00D-06.
 No special actions if energy rises.

 Cycle   1  Pass 1  IDiag  1:
 E= -649.152814233200    
 DIIS: error= 1.41D-02 at cycle   1 NSaved=   1.
 NSaved= 1 IEnMin= 1 EnMin= -649.152814233200     IErMin= 1 ErrMin= 1.41D-02
 ErrMax= 1.41D-02  0.00D+00 EMaxC= 1.00D-01 BMatC= 2.70D-02 BMatP= 2.70D-02
 IDIUse=3 WtCom= 8.59D-01 WtEn= 1.41D-01
 Coeff-Com:  0.100D+01
 Coeff-En:   0.100D+01
 Coeff:      0.100D+01
 Gap=     0.036 Goal=   None    Shift=    0.000
 GapD=    0.036 DampG=0.250 DampE=0.500 DampFc=0.2500 IDamp=-1.
 Damping current iteration by 2.50D-01
 RMSDP=1.52D-03 MaxDP=3.30D-02              OVMax= 5.46D-02

 Cycle   2  Pass 1  IDiag  1:
 E= -649.156819926872     Delta-E=       -0.004005693672 Rises=F Damp=T
 DIIS: error= 9.85D-03 at cycle   2 NSaved=   2.
 NSaved= 2 IEnMin= 2 EnMin= -649.156819926872     IErMin= 2 ErrMin= 9.85D-03
 ErrMax= 9.85D-03  0.00D+00 EMaxC= 1.00D-01 BMatC= 1.03D-02 BMatP= 2.70D-02
 IDIUse=3 WtCom= 9.01D-01 WtEn= 9.85D-02
 Coeff-Com: -0.128D+01 0.228D+01
 Coeff-En:   0.000D+00 0.100D+01
 Coeff:     -0.116D+01 0.216D+01
 Gap=     0.036 Goal=   None    Shift=    0.000
 RMSDP=1.20D-03 MaxDP=3.47D-02 DE=-4.01D-03 OVMax= 2.82D-02

 Cycle   3  Pass 1  IDiag  1:
 E= -649.165071040020     Delta-E=       -0.008251113149 Rises=F Damp=F
 DIIS: error= 2.75D-04 at cycle   3 NSaved=   3.
 NSaved= 3 IEnMin= 3 EnMin= -649.165071040020     IErMin= 3 ErrMin= 2.75D-04
 ErrMax= 2.75D-04  0.00D+00 EMaxC= 1.00D-01 BMatC= 2.35D-05 BMatP= 1.03D-02
 IDIUse=3 WtCom= 9.97D-01 WtEn= 2.75D-03
 Coeff-Com:  0.688D-01-0.873D-01 0.102D+01
 Coeff-En:   0.000D+00 0.000D+00 0.100D+01
 Coeff:      0.686D-01-0.871D-01 0.102D+01
 Gap=     0.036 Goal=   None    Shift=    0.000
 RMSDP=5.94D-04 MaxDP=3.81D-02 DE=-8.25D-03 OVMax= 5.85D-02

 Cycle   4  Pass 1  IDiag  1:
 E= -649.164247396715     Delta-E=        0.000823643305 Rises=F Damp=F
 DIIS: error= 9.94D-04 at cycle   4 NSaved=   4.
 NSaved= 4 IEnMin= 3 EnMin= -649.165071040020     IErMin= 3 ErrMin= 2.75D-04
 ErrMax= 9.94D-04  0.00D+00 EMaxC= 1.00D-01 BMatC= 1.18D-04 BMatP= 2.35D-05
 IDIUse=3 WtCom= 2.41D-01 WtEn= 7.59D-01
 Coeff-Com:  0.571D-01-0.752D-01 0.779D+00 0.239D+00
 Coeff-En:   0.000D+00 0.000D+00 0.855D+00 0.145D+00
 Coeff:      0.137D-01-0.181D-01 0.837D+00 0.168D+00
 Gap=     0.036 Goal=   None    Shift=    0.000
 RMSDP=3.47D-04 MaxDP=2.31D-02 DE= 8.24D-04 OVMax= 3.60D-02

 Cycle   5  Pass 1  IDiag  1:
 E= -649.165112168762     Delta-E=       -0.000864772047 Rises=F Damp=F
 DIIS: error= 2.21D-04 at cycle   5 NSaved=   5.
 NSaved= 5 IEnMin= 5 EnMin= -649.165112168762     IErMin= 5 ErrMin= 2.21D-04
 ErrMax= 2.21D-04  0.00D+00 EMaxC= 1.00D-01 BMatC= 9.78D-06 BMatP= 2.35D-05
 IDIUse=3 WtCom= 9.98D-01 WtEn= 2.21D-03
 Coeff-Com: -0.235D-01 0.310D-01 0.214D+00-0.145D+00 0.923D+00
 Coeff-En:   0.000D+00 0.000D+00 0.389D+00 0.000D+00 0.611D+00
 Coeff:     -0.234D-01 0.309D-01 0.214D+00-0.144D+00 0.923D+00
 Gap=     0.036 Goal=   None    Shift=    0.000
 RMSDP=1.19D-04 MaxDP=6.68D-03 DE=-8.65D-04 OVMax= 1.11D-02

 Cycle   6  Pass 1  IDiag  1:
 E= -649.165156153747     Delta-E=       -0.000043984985 Rises=F Damp=F
 DIIS: error= 7.84D-05 at cycle   6 NSaved=   6.
 NSaved= 6 IEnMin= 6 EnMin= -649.165156153747     IErMin= 6 ErrMin= 7.84D-05
 ErrMax= 7.84D-05  0.00D+00 EMaxC= 1.00D-01 BMatC= 5.62D-07 BMatP= 9.78D-06
 IDIUse=1 WtCom= 1.00D+00 WtEn= 0.00D+00
 Coeff-Com: -0.221D-01 0.291D-01 0.713D-01-0.122D+00 0.631D+00 0.412D+00
 Coeff:     -0.221D-01 0.291D-01 0.713D-01-0.122D+00 0.631D+00 0.412D+00
 Gap=     0.036 Goal=   None    Shift=    0.000
 RMSDP=3.51D-05 MaxDP=2.30D-03 DE=-4.40D-05 OVMax= 3.03D-03

 Cycle   7  Pass 1  IDiag  1:
 E= -649.165159636856     Delta-E=       -0.000003483109 Rises=F Damp=F
 DIIS: error= 1.03D-05 at cycle   7 NSaved=   7.
 NSaved= 7 IEnMin= 7 EnMin= -649.165159636856     IErMin= 7 ErrMin= 1.03D-05
 ErrMax= 1.03D-05  0.00D+00 EMaxC= 1.00D-01 BMatC= 1.14D-08 BMatP= 5.62D-07
 IDIUse=1 WtCom= 1.00D+00 WtEn= 0.00D+00
 Coeff-Com: -0.330D-02 0.434D-02-0.578D-02-0.147D-01 0.565D-01 0.142D+00
 Coeff-Com:  0.821D+00
 Coeff:     -0.330D-02 0.434D-02-0.578D-02-0.147D-01 0.565D-01 0.142D+00
 Coeff:      0.821D+00
 Gap=     0.036 Goal=   None    Shift=    0.000
 RMSDP=4.51D-06 MaxDP=2.55D-04 DE=-3.48D-06 OVMax= 3.95D-04

 Cycle   8  Pass 1  IDiag  1:
 E= -649.165159703899     Delta-E=       -0.000000067043 Rises=F Damp=F
 DIIS: error= 7.40D-07 at cycle   8 NSaved=   8.
 NSaved= 8 IEnMin= 8 EnMin= -649.165159703899     IErMin= 8 ErrMin= 7.40D-07
 ErrMax= 7.40D-07  0.00D+00 EMaxC= 1.00D-01 BMatC= 1.13D-10 BMatP= 1.14D-08
 IDIUse=1 WtCom= 1.00D+00 WtEn= 0.00D+00
 Coeff-Com:  0.837D-03-0.111D-02-0.850D-03 0.319D-02-0.174D-01-0.859D-02
 Coeff-Com:  0.141D-01 0.101D+01
 Coeff:      0.837D-03-0.111D-02-0.850D-03 0.319D-02-0.174D-01-0.859D-02
 Coeff:      0.141D-01 0.101D+01
 Gap=     0.036 Goal=   None    Shift=    0.000
 RMSDP=6.13D-07 MaxDP=3.14D-05 DE=-6.70D-08 OVMax= 5.06D-05

 Cycle   9  Pass 1  IDiag  1:
 E= -649.165159704349     Delta-E=       -0.000000000450 Rises=F Damp=F
 DIIS: error= 3.01D-07 at cycle   9 NSaved=   9.
 NSaved= 9 IEnMin= 9 EnMin= -649.165159704349     IErMin= 9 ErrMin= 3.01D-07
 ErrMax= 3.01D-07  0.00D+00 EMaxC= 1.00D-01 BMatC= 1.24D-11 BMatP= 1.13D-10
 IDIUse=1 WtCom= 1.00D+00 WtEn= 0.00D+00
 Coeff-Com:  0.375D-03-0.499D-03-0.141D-03 0.171D-02-0.770D-02-0.628D-02
 Coeff-Com: -0.977D-02 0.326D+00 0.696D+00
 Coeff:      0.375D-03-0.499D-03-0.141D-03 0.171D-02-0.770D-02-0.628D-02
 Coeff:     -0.977D-02 0.326D+00 0.696D+00
 Gap=     0.036 Goal=   None    Shift=    0.000
 RMSDP=1.78D-07 MaxDP=1.10D-05 DE=-4.50D-10 OVMax= 1.84D-05

 Cycle  10  Pass 1  IDiag  1:
 E= -649.165159704443     Delta-E=       -0.000000000094 Rises=F Damp=F
 DIIS: error= 6.33D-08 at cycle  10 NSaved=  10.
 NSaved=10 IEnMin=10 EnMin= -649.165159704443     IErMin=10 ErrMin= 6.33D-08
 ErrMax= 6.33D-08  0.00D+00 EMaxC= 1.00D-01 BMatC= 5.25D-13 BMatP= 1.24D-11
 IDIUse=1 WtCom= 1.00D+00 WtEn= 0.00D+00
 Coeff-Com:  0.806D-05-0.105D-04 0.404D-04 0.712D-04-0.249D-03-0.416D-03
 Coeff-Com: -0.198D-02-0.161D-01 0.143D+00 0.876D+00
 Coeff:      0.806D-05-0.105D-04 0.404D-04 0.712D-04-0.249D-03-0.416D-03
 Coeff:     -0.198D-02-0.161D-01 0.143D+00 0.876D+00
 Gap=     0.036 Goal=   None    Shift=    0.000
 RMSDP=4.56D-08 MaxDP=2.27D-06 DE=-9.40D-11 OVMax= 3.84D-06

 Cycle  11  Pass 1  IDiag  1:
 E= -649.165159704449     Delta-E=       -0.000000000006 Rises=F Damp=F
 DIIS: error= 9.52D-09 at cycle  11 NSaved=  11.
 NSaved=11 IEnMin=11 EnMin= -649.165159704449     IErMin=11 ErrMin= 9.52D-09
 ErrMax= 9.52D-09  0.00D+00 EMaxC= 1.00D-01 BMatC= 7.82D-15 BMatP= 5.25D-13
 IDIUse=1 WtCom= 1.00D+00 WtEn= 0.00D+00
 Coeff-Com: -0.102D-04 0.136D-04 0.840D-05-0.401D-04 0.193D-03 0.143D-03
 Coeff-Com:  0.283D-03-0.103D-01-0.133D-01 0.786D-01 0.944D+00
 Coeff:     -0.102D-04 0.136D-04 0.840D-05-0.401D-04 0.193D-03 0.143D-03
 Coeff:      0.283D-03-0.103D-01-0.133D-01 0.786D-01 0.944D+00
 Gap=     0.036 Goal=   None    Shift=    0.000
 RMSDP=8.37D-09 MaxDP=2.30D-07 DE=-6.37D-12 OVMax= 6.79D-07

 SCF Done:  E(RB3LYP) =  -649.165159704     A.U. after   11 cycles
            NFock= 11  Conv=0.84D-08     -V/T= 2.0031
 KE= 6.471910099424D+02 PE=-1.682695012617D+03 EE= 3.243692121961D+02
 Leave Link  502 at Tue Aug  8 11:07:06 2023, MaxMem=  1610612736 cpu:              18.2 elap:               1.3
 (Enter /home/sekinelabo/g16/l601.exe)
 Copying SCF densities to generalized density rwf, IOpCl= 0 IROHF=0.

 **********************************************************************

            Population analysis using the SCF Density.

 **********************************************************************

 Orbital symmetries:
       Occupied  (A) (A) (A) (A) (A) (A) (A) (A) (A) (A) (A) (A)
                 (A) (A) (A) (A) (A) (A) (A) (A) (A) (A)
       Virtual   (A) (A) (A) (A) (A) (A) (A) (A) (A) (A) (A) (A)
                 (A) (A) (A) (A) (A) (A) (A) (A) (A) (A) (A) (A)
                 (A) (A) (A) (A) (A) (A) (A) (A) (A) (A) (A) (A)
                 (A) (A) (A) (A) (A) (A) (A) (A) (A) (A) (A) (A)
                 (A) (A) (A) (A) (A) (A) (A) (A) (A) (A) (A) (A)
                 (A) (A) (A) (A) (A) (A) (A) (A) (A) (A) (A) (A)
                 (A) (A) (A) (A) (A) (A) (A) (A) (A) (A) (A) (A)
                 (A) (A) (A) (A) (A) (A) (A) (A) (A) (A) (A) (A)
                 (A) (A)
 The electronic state is 1-A.
 Alpha  occ. eigenvalues --  -38.46047 -38.45984 -38.45533 -38.45487  -2.21717
 Alpha  occ. eigenvalues --   -2.21656  -2.21221  -2.21175  -1.15398  -1.15392
 Alpha  occ. eigenvalues --   -1.15350  -1.15336  -1.15336  -1.15289  -1.14901
 Alpha  occ. eigenvalues --   -1.14901  -1.14857  -1.14852  -1.14840  -1.14794
 Alpha  occ. eigenvalues --   -0.12425  -0.11561
 Alpha virt. eigenvalues --   -0.07949  -0.06897  -0.02527  -0.02409  -0.02209
 Alpha virt. eigenvalues --   -0.01730  -0.01561  -0.01204  -0.00447  -0.00247
 Alpha virt. eigenvalues --   -0.00028   0.00325   0.00408   0.00550   0.00820
 Alpha virt. eigenvalues --    0.01344   0.01528   0.01564   0.01624   0.01726
 Alpha virt. eigenvalues --    0.01812   0.02105   0.02175   0.02211   0.02430
 Alpha virt. eigenvalues --    0.02513   0.02796   0.02992   0.03065   0.03611
 Alpha virt. eigenvalues --    0.06961   0.07226   0.07646   0.07862   0.08015
 Alpha virt. eigenvalues --    0.08285   0.08342   0.08599   0.08777   0.09001
 Alpha virt. eigenvalues --    0.09211   0.09506   0.10232   0.11517   0.11923
 Alpha virt. eigenvalues --    0.12656   0.31882   0.31989   0.32090   0.32623
 Alpha virt. eigenvalues --    0.33836   0.33994   0.34391   0.34633   0.34642
 Alpha virt. eigenvalues --    0.34711   0.34862   0.35110   0.35394   0.35637
 Alpha virt. eigenvalues --    0.35681   0.35973   0.37395   0.38342   0.38380
 Alpha virt. eigenvalues --    0.40719   0.42352   0.42588   0.42998   0.43346
 Alpha virt. eigenvalues --    0.43457   0.43733   0.43798   0.45527   0.46332
 Alpha virt. eigenvalues --    0.46595   0.47789   0.49090   1.99593   2.01167
 Alpha virt. eigenvalues --    2.02451   2.05821   4.42335   4.42390   4.42906
 Alpha virt. eigenvalues --    4.42980   4.43159   4.43404   4.43528   4.43648
 Alpha virt. eigenvalues --    4.43932   4.44579   4.45587   4.47009  96.18388
 Alpha virt. eigenvalues --   96.20288  96.21721  96.25616
          Condensed to atoms (all electrons):
               1          2          3          4
     1  Na  10.867302   0.185482   0.012548  -0.030401
     2  Na   0.185482  10.821738  -0.015719  -0.018556
     3  Na   0.012548  -0.015719  10.797182   0.249076
     4  Na  -0.030401  -0.018556   0.249076  10.748920
 Mulliken charges:
               1
     1  Na  -0.034931
     2  Na   0.027055
     3  Na  -0.043087
     4  Na   0.050962
 Sum of Mulliken charges =  -0.00000
 Mulliken charges with hydrogens summed into heavy atoms:
               1
     1  Na  -0.034931
     2  Na   0.027055
     3  Na  -0.043087
     4  Na   0.050962
 Electronic spatial extent (au):  <R**2>=           3016.5531
 Charge=             -0.0000 electrons
 Dipole moment (field-independent basis, Debye):
    X=              0.2814    Y=             -0.3246    Z=             -0.0303  Tot=              0.4306
 Quadrupole moment (field-independent basis, Debye-Ang):
   XX=            -42.4218   YY=            -30.1897   ZZ=            -42.2884
   XY=              1.6040   XZ=             -3.6401   YZ=              1.6391
 Traceless Quadrupole moment (field-independent basis, Debye-Ang):
   XX=             -4.1219   YY=              8.1103   ZZ=             -3.9884
   XY=              1.6040   XZ=             -3.6401   YZ=              1.6391
 Octapole moment (field-independent basis, Debye-Ang**2):
  XXX=            -13.6423  YYY=             -4.5720  ZZZ=              1.1979  XYY=             11.4569
  XXY=            -67.1815  XXZ=              2.9196  XZZ=              8.2407  YZZ=              3.8126
  YYZ=             -3.2034  XYZ=             30.4602
 Hexadecapole moment (field-independent basis, Debye-Ang**3):
 XXXX=          -3885.0213 YYYY=           -901.7337 ZZZZ=           -395.3988 XXXY=             82.5807
 XXXZ=           -182.4464 YYYX=            -16.3667 YYYZ=             10.2616 ZZZX=            -11.5768
 ZZZY=             12.3032 XXYY=           -627.0663 XXZZ=           -730.1197 YYZZ=           -210.1039
 XXYZ=             31.0644 YYXZ=            -11.9394 ZZXY=              3.6575
 N-N= 6.196963077368D+01 E-N=-1.682695012506D+03  KE= 6.471910099424D+02
 No NMR shielding tensors so no spin-rotation constants.
 Leave Link  601 at Tue Aug  8 11:07:06 2023, MaxMem=  1610612736 cpu:               0.9 elap:               0.1
 (Enter /home/sekinelabo/g16/l701.exe)
 ... and contract with generalized density number  0.
 Compute integral first derivatives.
 Leave Link  701 at Tue Aug  8 11:07:07 2023, MaxMem=  1610612736 cpu:               1.4 elap:               0.1
 (Enter /home/sekinelabo/g16/l702.exe)
 L702 exits ... SP integral derivatives will be done elsewhere.
 Leave Link  702 at Tue Aug  8 11:07:07 2023, MaxMem=  1610612736 cpu:               0.3 elap:               0.0
 (Enter /home/sekinelabo/g16/l703.exe)
 Integral derivatives from FoFJK, PRISM(SPDF).
 Compute integral first derivatives, UseDBF=F ICtDFT=           0.
 Calling FoFJK, ICntrl=      2127 FMM=F ISym2X=0 I1Cent= 0 IOpClX= 0 NMat=1 NMatS=1 NMatT=0.
 FoFJK:  IHMeth= 1 ICntrl=    2127 DoSepK=F KAlg= 0 I1Cent=           0 FoldK=F
 IRaf=         0 NMat=       1 IRICut=       1 DoRegI=T DoRafI=F ISym2E= 0 IDoP0=0 IntGTp=1.
 FoFCou: FMM=F IPFlag=           0 FMFlag=      100000 FMFlg1=         800
         NFxFlg=           0 DoJE=F BraDBF=F KetDBF=F FulRan=T
         wScrn=  0.000000 ICntrl=      2127 IOpCl=  0 I1Cent=           0 NGrid=           0
         NMat0=    1 NMatS0=      1 NMatT0=    0 NMatD0=    1 NMtDS0=    0 NMtDT0=    0
 Symmetry not used in FoFCou.
 Leave Link  703 at Tue Aug  8 11:07:07 2023, MaxMem=  1610612736 cpu:               5.3 elap:               0.3
 (Enter /home/sekinelabo/g16/l716.exe)
 Dipole        = 1.10712434D-01-1.27697209D-01-1.19268348D-02
 ***** Axes restored to original set *****
 -------------------------------------------------------------------
 Center     Atomic                   Forces (Hartrees/Bohr)
 Number     Number              X              Y              Z
 -------------------------------------------------------------------
      1       11          -0.006633809   -0.000056024   -0.001378311
      2       11           0.006592373    0.000060451    0.001986666
      3       11          -0.003235625   -0.007308895    0.001015386
      4       11           0.003277061    0.007304467   -0.001623741
 -------------------------------------------------------------------
 Cartesian Forces:  Max     0.007308895 RMS     0.004329851
 Z-matrix is all fixed cartesians, so copy forces.
 Force constants in Cartesian coordinates: 
                1             2             3             4             5 
      1  0.100000D+01
      2  0.000000D+00  0.100000D+01
      3  0.000000D+00  0.000000D+00  0.100000D+01
      4  0.000000D+00  0.000000D+00  0.000000D+00  0.100000D+01
      5  0.000000D+00  0.000000D+00  0.000000D+00  0.000000D+00  0.100000D+01
      6  0.000000D+00  0.000000D+00  0.000000D+00  0.000000D+00  0.000000D+00
      7  0.000000D+00  0.000000D+00  0.000000D+00  0.000000D+00  0.000000D+00
      8  0.000000D+00  0.000000D+00  0.000000D+00  0.000000D+00  0.000000D+00
      9  0.000000D+00  0.000000D+00  0.000000D+00  0.000000D+00  0.000000D+00
     10  0.000000D+00  0.000000D+00  0.000000D+00  0.000000D+00  0.000000D+00
     11  0.000000D+00  0.000000D+00  0.000000D+00  0.000000D+00  0.000000D+00
     12  0.000000D+00  0.000000D+00  0.000000D+00  0.000000D+00  0.000000D+00
                6             7             8             9            10 
      6  0.100000D+01
      7  0.000000D+00  0.100000D+01
      8  0.000000D+00  0.000000D+00  0.100000D+01
      9  0.000000D+00  0.000000D+00  0.000000D+00  0.100000D+01
     10  0.000000D+00  0.000000D+00  0.000000D+00  0.000000D+00  0.100000D+01
     11  0.000000D+00  0.000000D+00  0.000000D+00  0.000000D+00  0.000000D+00
     12  0.000000D+00  0.000000D+00  0.000000D+00  0.000000D+00  0.000000D+00
               11            12 
     11  0.100000D+01
     12  0.000000D+00  0.100000D+01
 Leave Link  716 at Tue Aug  8 11:07:07 2023, MaxMem=  1610612736 cpu:               0.3 elap:               0.0
 (Enter /home/sekinelabo/g16/l103.exe)

 GradGradGradGradGradGradGradGradGradGradGradGradGradGradGradGradGradGrad
 Berny optimization.
 Search for a local minimum.
 Step number   1 out of a maximum of    2
 All quantities printed in internal units (Hartrees-Bohrs-Radians)
 Second derivative matrix not updated -- first step.
 The second derivative matrix:
                          X1        Y1        Z1        X2        Y2
           X1           1.00000
           Y1           0.00000   1.00000
           Z1           0.00000   0.00000   1.00000
           X2           0.00000   0.00000   0.00000   1.00000
           Y2           0.00000   0.00000   0.00000   0.00000   1.00000
           Z2           0.00000   0.00000   0.00000   0.00000   0.00000
           X3           0.00000   0.00000   0.00000   0.00000   0.00000
           Y3           0.00000   0.00000   0.00000   0.00000   0.00000
           Z3           0.00000   0.00000   0.00000   0.00000   0.00000
           X4           0.00000   0.00000   0.00000   0.00000   0.00000
           Y4           0.00000   0.00000   0.00000   0.00000   0.00000
           Z4           0.00000   0.00000   0.00000   0.00000   0.00000
                          Z2        X3        Y3        Z3        X4
           Z2           1.00000
           X3           0.00000   1.00000
           Y3           0.00000   0.00000   1.00000
           Z3           0.00000   0.00000   0.00000   1.00000
           X4           0.00000   0.00000   0.00000   0.00000   1.00000
           Y4           0.00000   0.00000   0.00000   0.00000   0.00000
           Z4           0.00000   0.00000   0.00000   0.00000   0.00000
                          Y4        Z4
           Y4           1.00000
           Z4           0.00000   1.00000
 ITU=  0
     Eigenvalues ---    1.00000   1.00000   1.00000   1.00000   1.00000
     Eigenvalues ---    1.00000   1.00000   1.00000   1.00000   1.00000
     Eigenvalues ---    1.00000   1.00000
 Angle between quadratic step and forces=   0.00 degrees.
 Linear search not attempted -- first point.
 B after Tr=    -0.000000    0.000000   -0.000000
         Rot=    1.000000    0.000000    0.000000   -0.000000 Ang=   0.00 deg.
 Variable       Old X    -DE/DX   Delta X   Delta X   Delta X     New X
                                 (Linear)    (Quad)   (Total)
    X1        0.00000  -0.00663   0.00000  -0.00663  -0.00663  -0.00663
    Y1        0.00000  -0.00006   0.00000  -0.00006  -0.00006  -0.00006
    Z1       -0.00000  -0.00138   0.00000  -0.00138  -0.00138  -0.00138
    X2       -8.87565   0.00659   0.00000   0.00659   0.00659  -8.86906
    Y2        0.00000   0.00006   0.00000   0.00006   0.00006   0.00006
    Z2       -2.77615   0.00199   0.00000   0.00199   0.00199  -2.77416
    X3        0.00000  -0.00324   0.00000  -0.00324  -0.00324  -0.00324
    Y3        0.00000  -0.00731   0.00000  -0.00731  -0.00731  -0.00731
    Z3       10.91733   0.00102   0.00000   0.00102   0.00102  10.91835
    X4       -3.08379   0.00328   0.00000   0.00328   0.00328  -3.08051
    Y4       -7.03720   0.00730   0.00000   0.00730   0.00730  -7.02989
    Z4       12.51118  -0.00162   0.00000  -0.00162  -0.00162  12.50955
         Item               Value     Threshold  Converged?
 Maximum Force            0.007309     0.000450     NO 
 RMS     Force            0.004330     0.000300     NO 
 Maximum Displacement     0.007309     0.001800     NO 
 RMS     Displacement     0.004330     0.001200     NO 
 Predicted change in Energy=-1.124856D-04
 GradGradGradGradGradGradGradGradGradGradGradGradGradGradGradGradGradGrad

 Leave Link  103 at Tue Aug  8 11:07:07 2023, MaxMem=  1610612736 cpu:               0.2 elap:               0.0
 (Enter /home/sekinelabo/g16/l9999.exe)
 1\1\GINC-SEKINELABO-XA7R-R37\Force\RB3LYP\6-311+G(d)\Na4\SEKINELABO\08
 -Aug-2023\0\\#p B3LYP/6-311+g(d) force\\Test\\0,1\Na,0.,0.,0.\Na,-4.69
 67926963,0.,-1.4690745702\Na,0.,0.,5.7772037901\Na,-1.6318718372,-3.72
 392417,6.6206288611\\Version=ES64L-G16RevB.01\State=1-A\HF=-649.165159
 7\RMSD=8.367e-09\RMSF=4.330e-03\Dipole=-0.0703331,-0.1086515,0.1093351
 \Quadrupole=3.687609,1.4901669,-5.1777759,3.5032292,1.4424677,-1.35471
 53\PG=C01 [X(Na4)]\\@


 "PERFECTION IS NOT AN ACCIDENT"
         --  EAGLE ELECTRIC MANUFACTURING CO.,INC. NY
 Job cpu time:       0 days  0 hours  0 minutes 33.0 seconds.
 Elapsed time:       0 days  0 hours  0 minutes  2.3 seconds.
 File lengths (MBytes):  RWF=     10 Int=      0 D2E=      0 Chk=      2 Scr=      1
 Normal termination of Gaussian 16 at Tue Aug  8 11:07:07 2023.
