 Initial command:
 /home/sekinelabo/g16/l1.exe "/home/sekinelabo/g16temp/Gau-20140.inp" -scrdir="/home/sekinelabo/g16temp/"
 Entering Link 1 = /home/sekinelabo/g16/l1.exe PID=     21836.
  
 Copyright (c) 1988-2017, Gaussian, Inc.  All Rights Reserved.
  
 This is part of the Gaussian(R) 16 program.  It is based on
 the Gaussian(R) 09 system (copyright 2009, Gaussian, Inc.),
 the Gaussian(R) 03 system (copyright 2003, Gaussian, Inc.),
 the Gaussian(R) 98 system (copyright 1998, Gaussian, Inc.),
 the Gaussian(R) 94 system (copyright 1995, Gaussian, Inc.),
 the Gaussian 92(TM) system (copyright 1992, Gaussian, Inc.),
 the Gaussian 90(TM) system (copyright 1990, Gaussian, Inc.),
 the Gaussian 88(TM) system (copyright 1988, Gaussian, Inc.),
 the Gaussian 86(TM) system (copyright 1986, Carnegie Mellon
 University), and the Gaussian 82(TM) system (copyright 1983,
 Carnegie Mellon University). Gaussian is a federally registered
 trademark of Gaussian, Inc.
  
 This software contains proprietary and confidential information,
 including trade secrets, belonging to Gaussian, Inc.
  
 This software is provided under written license and may be
 used, copied, transmitted, or stored only in accord with that
 written license.
  
 The following legend is applicable only to US Government
 contracts under FAR:
  
                    RESTRICTED RIGHTS LEGEND
  
 Use, reproduction and disclosure by the US Government is
 subject to restrictions as set forth in subparagraphs (a)
 and (c) of the Commercial Computer Software - Restricted
 Rights clause in FAR 52.227-19.
  
 Gaussian, Inc.
 340 Quinnipiac St., Bldg. 40, Wallingford CT 06492
  
  
 ---------------------------------------------------------------
 Warning -- This program may not be used in any manner that
 competes with the business of Gaussian, Inc. or will provide
 assistance to any competitor of Gaussian, Inc.  The licensee
 of this program is prohibited from giving any competitor of
 Gaussian, Inc. access to this program.  By using this program,
 the user acknowledges that Gaussian, Inc. is engaged in the
 business of creating and licensing software in the field of
 computational chemistry and represents and warrants to the
 licensee that it is not a competitor of Gaussian, Inc. and that
 it will not use this program in any manner prohibited above.
 ---------------------------------------------------------------
  

 Cite this work as:
 Gaussian 16, Revision B.01,
 M. J. Frisch, G. W. Trucks, H. B. Schlegel, G. E. Scuseria, 
 M. A. Robb, J. R. Cheeseman, G. Scalmani, V. Barone, 
 G. A. Petersson, H. Nakatsuji, X. Li, M. Caricato, A. V. Marenich, 
 J. Bloino, B. G. Janesko, R. Gomperts, B. Mennucci, H. P. Hratchian, 
 J. V. Ortiz, A. F. Izmaylov, J. L. Sonnenberg, D. Williams-Young, 
 F. Ding, F. Lipparini, F. Egidi, J. Goings, B. Peng, A. Petrone, 
 T. Henderson, D. Ranasinghe, V. G. Zakrzewski, J. Gao, N. Rega, 
 G. Zheng, W. Liang, M. Hada, M. Ehara, K. Toyota, R. Fukuda, 
 J. Hasegawa, M. Ishida, T. Nakajima, Y. Honda, O. Kitao, H. Nakai, 
 T. Vreven, K. Throssell, J. A. Montgomery, Jr., J. E. Peralta, 
 F. Ogliaro, M. J. Bearpark, J. J. Heyd, E. N. Brothers, K. N. Kudin, 
 V. N. Staroverov, T. A. Keith, R. Kobayashi, J. Normand, 
 K. Raghavachari, A. P. Rendell, J. C. Burant, S. S. Iyengar, 
 J. Tomasi, M. Cossi, J. M. Millam, M. Klene, C. Adamo, R. Cammi, 
 J. W. Ochterski, R. L. Martin, K. Morokuma, O. Farkas, 
 J. B. Foresman, and D. J. Fox, Gaussian, Inc., Wallingford CT, 2016.
 
 ******************************************
 Gaussian 16:  ES64L-G16RevB.01 20-Dec-2017
                23-Aug-2023 
 ******************************************
 %NProcShared=16
 Will use up to   16 processors via shared memory.
 %mem=12GB
 %Chk=checkpoint.chk
 -------------------------
 #p B3LYP/6-311+g(d) force
 -------------------------
 1/10=7,30=1,38=1/1,3;
 2/12=2,17=6,18=5,40=1/2;
 3/5=4,6=6,7=11,11=2,25=1,30=1,71=1,74=-5/1,2,3;
 4//1;
 5/5=2,38=5/2;
 6/7=2,8=2,9=2,10=2,28=1/1;
 7/29=1/1,2,3,16;
 1/10=7,30=1/3;
 99//99;
 Leave Link    1 at Wed Aug 23 10:07:56 2023, MaxMem=  1610612736 cpu:               0.2 elap:               0.0
 (Enter /home/sekinelabo/g16/l101.exe)


 Symbolic Z-matrix:
 Charge =  0 Multiplicity = 1
 Na                    0.        0.        0. 
 Na                   -4.25624   0.       -3.70912 
 Na                    0.        0.        2.51224 
 Na                    2.76305  -1.5666    0.85473 
 
 ITRead=  0  0  0  0
 MicOpt= -1 -1 -1 -1
 NAtoms=      4 NQM=        4 NQMF=       0 NMMI=      0 NMMIF=      0
                NMic=       0 NMicF=      0.
                    Isotopes and Nuclear Properties:
 (Nuclear quadrupole moments (NQMom) in fm**2, nuclear magnetic moments (NMagM)
  in nuclear magnetons)

  Atom         1           2           3           4
 IAtWgt=          23          23          23          23
 AtmWgt=  22.9897697  22.9897697  22.9897697  22.9897697
 NucSpn=           3           3           3           3
 AtZEff=  -0.0000000  -0.0000000  -0.0000000  -0.0000000
 NQMom=   10.4000000  10.4000000  10.4000000  10.4000000
 NMagM=    2.2175200   2.2175200   2.2175200   2.2175200
 AtZNuc=  11.0000000  11.0000000  11.0000000  11.0000000
 Leave Link  101 at Wed Aug 23 10:07:56 2023, MaxMem=  1610612736 cpu:               1.6 elap:               0.1
 (Enter /home/sekinelabo/g16/l103.exe)

 GradGradGradGradGradGradGradGradGradGradGradGradGradGradGradGradGradGrad
 Berny optimization.
 Initialization pass.
 Trust Radius=3.00D-01 FncErr=1.00D-07 GrdErr=1.00D-07 EigMax=2.50D+02 EigMin=1.00D-04
 Number of steps in this run=      2 maximum allowed number of steps=      2.
 GradGradGradGradGradGradGradGradGradGradGradGradGradGradGradGradGradGrad

 Leave Link  103 at Wed Aug 23 10:07:56 2023, MaxMem=  1610612736 cpu:               0.2 elap:               0.0
 (Enter /home/sekinelabo/g16/l202.exe)
                          Input orientation:                          
 ---------------------------------------------------------------------
 Center     Atomic      Atomic             Coordinates (Angstroms)
 Number     Number       Type             X           Y           Z
 ---------------------------------------------------------------------
      1         11           0        0.000000    0.000000    0.000000
      2         11           0       -4.256242    0.000000   -3.709118
      3         11           0        0.000000    0.000000    2.512241
      4         11           0        2.763051   -1.566602    0.854729
 ---------------------------------------------------------------------
                    Distance matrix (angstroms):
                    1          2          3          4
     1  Na   0.000000
     2  Na   5.645631   0.000000
     3  Na   2.512241   7.537964   0.000000
     4  Na   3.289263   8.517829   3.582742   0.000000
 Stoichiometry    Na4
 Framework group  C1[X(Na4)]
 Deg. of freedom     6
 Full point group                 C1      NOp   1
 Largest Abelian subgroup         C1      NOp   1
 Largest concise Abelian subgroup C1      NOp   1
                         Standard orientation:                         
 ---------------------------------------------------------------------
 Center     Atomic      Atomic             Coordinates (Angstroms)
 Number     Number       Type             X           Y           Z
 ---------------------------------------------------------------------
      1         11           0       -0.289608    0.018547    0.464587
      2         11           0        5.317627   -0.257766   -0.131832
      3         11           0       -1.930190    1.813175   -0.167204
      4         11           0       -3.097830   -1.573956   -0.165551
 ---------------------------------------------------------------------
 Rotational constants (GHZ):           3.5917741           0.5237511           0.4626498
 Leave Link  202 at Wed Aug 23 10:07:56 2023, MaxMem=  1610612736 cpu:               0.0 elap:               0.0
 (Enter /home/sekinelabo/g16/l301.exe)
 Standard basis: 6-311+G(d) (5D, 7F)
 Ernie: Thresh=  0.10000D-02 Tol=  0.10000D-05 Strict=F.
 There are   124 symmetry adapted cartesian basis functions of A   symmetry.
 There are   120 symmetry adapted basis functions of A   symmetry.
   120 basis functions,   200 primitive gaussians,   124 cartesian basis functions
    22 alpha electrons       22 beta electrons
       nuclear repulsion energy        90.1790013769 Hartrees.
 IExCor=  402 DFT=T Ex+Corr=B3LYP ExCW=0 ScaHFX=  0.200000
 ScaDFX=  0.800000  0.720000  1.000000  0.810000 ScalE2=  1.000000  1.000000
 IRadAn=      5 IRanWt=     -1 IRanGd=            0 ICorTp=0 IEmpDi=  4
 NAtoms=    4 NActive=    4 NUniq=    4 SFac= 1.00D+00 NAtFMM=   60 NAOKFM=F Big=F
 Integral buffers will be    131072 words long.
 Raffenetti 2 integral format.
 Two-electron integral symmetry is turned on.
 Leave Link  301 at Wed Aug 23 10:07:56 2023, MaxMem=  1610612736 cpu:               0.3 elap:               0.0
 (Enter /home/sekinelabo/g16/l302.exe)
 NPDir=0 NMtPBC=     1 NCelOv=     1 NCel=       1 NClECP=     1 NCelD=      1
         NCelK=      1 NCelE2=     1 NClLst=     1 CellRange=     0.0.
 One-electron integrals computed using PRISM.
 One-electron integral symmetry used in STVInt
 NBasis=   120 RedAO= T EigKep=  2.30D-05  NBF=   120
 NBsUse=   120 1.00D-06 EigRej= -1.00D+00 NBFU=   120
 Precomputing XC quadrature grid using
 IXCGrd= 4 IRadAn=           5 IRanWt=          -1 IRanGd=           0 AccXCQ= 0.00D+00.
 Generated NRdTot=       0 NPtTot=           0 NUsed=           0 NTot=          32
 NSgBfM=   115   115   115   115   115 MxSgAt=     4 MxSgA2=     4.
 Leave Link  302 at Wed Aug 23 10:07:56 2023, MaxMem=  1610612736 cpu:               1.3 elap:               0.1
 (Enter /home/sekinelabo/g16/l303.exe)
 DipDrv:  MaxL=1.
 Leave Link  303 at Wed Aug 23 10:07:56 2023, MaxMem=  1610612736 cpu:               0.3 elap:               0.0
 (Enter /home/sekinelabo/g16/l401.exe)
 ExpMin= 7.60D-03 ExpMax= 3.62D+04 ExpMxC= 1.21D+03 IAcc=3 IRadAn=         5 AccDes= 0.00D+00
 Harris functional with IExCor=  402 and IRadAn=       5 diagonalized for initial guess.
 HarFok:  IExCor=  402 AccDes= 0.00D+00 IRadAn=         5 IDoV= 1 UseB2=F ITyADJ=14
 ICtDFT=  3500011 ScaDFX=  1.000000  1.000000  1.000000  1.000000
 FoFCou: FMM=F IPFlag=           0 FMFlag=      100000 FMFlg1=           0
         NFxFlg=           0 DoJE=T BraDBF=F KetDBF=T FulRan=T
         wScrn=  0.000000 ICntrl=       500 IOpCl=  0 I1Cent=   200000004 NGrid=           0
         NMat0=    1 NMatS0=      1 NMatT0=    0 NMatD0=    1 NMtDS0=    0 NMtDT0=    0
 Petite list used in FoFCou.
 Harris En= -649.042964530311    
 JPrj=0 DoOrth=F DoCkMO=F.
 Leave Link  401 at Wed Aug 23 10:07:56 2023, MaxMem=  1610612736 cpu:               2.0 elap:               0.1
 (Enter /home/sekinelabo/g16/l502.exe)
 Keep R1 ints in memory in canonical form, NReq=41581762.
 FoFCou: FMM=F IPFlag=           0 FMFlag=           0 FMFlg1=           0
         NFxFlg=           0 DoJE=F BraDBF=F KetDBF=F FulRan=T
         wScrn=  0.000000 ICntrl=       600 IOpCl=  0 I1Cent=           0 NGrid=           0
         NMat0=    1 NMatS0=   7260 NMatT0=    0 NMatD0=    1 NMtDS0=    0 NMtDT0=    0
 Symmetry not used in FoFCou.
 Two-electron integral symmetry not used.
 Closed shell SCF:
 Using DIIS extrapolation, IDIIS=  1040.
 NGot=  1610612736 LenX=  1584221380 LenY=  1584205563
 Requested convergence on RMS density matrix=1.00D-08 within 128 cycles.
 Requested convergence on MAX density matrix=1.00D-06.
 Requested convergence on             energy=1.00D-06.
 No special actions if energy rises.

 Cycle   1  Pass 1  IDiag  1:
 E= -649.110057172818    
 DIIS: error= 1.33D-02 at cycle   1 NSaved=   1.
 NSaved= 1 IEnMin= 1 EnMin= -649.110057172818     IErMin= 1 ErrMin= 1.33D-02
 ErrMax= 1.33D-02  0.00D+00 EMaxC= 1.00D-01 BMatC= 2.95D-02 BMatP= 2.95D-02
 IDIUse=3 WtCom= 8.67D-01 WtEn= 1.33D-01
 Coeff-Com:  0.100D+01
 Coeff-En:   0.100D+01
 Coeff:      0.100D+01
 Gap=    -0.086 Goal=   None    Shift=    0.000
 GapD=   -0.086 DampG=0.250 DampE=0.500 DampFc=0.2500 IDamp=-1.
 Damping current iteration by 2.50D-01
 RMSDP=1.23D-02 MaxDP=5.66D-01              OVMax= 9.63D-01

 Cycle   2  Pass 1  IDiag  1:
 E= -649.142592850866     Delta-E=       -0.032535678048 Rises=F Damp=T
 DIIS: error= 8.86D-03 at cycle   2 NSaved=   2.
 NSaved= 2 IEnMin= 2 EnMin= -649.142592850866     IErMin= 2 ErrMin= 8.86D-03
 ErrMax= 8.86D-03  0.00D+00 EMaxC= 1.00D-01 BMatC= 1.02D-02 BMatP= 2.95D-02
 IDIUse=3 WtCom= 9.11D-01 WtEn= 8.86D-02
 Coeff-Com: -0.890D+00 0.189D+01
 Coeff-En:   0.000D+00 0.100D+01
 Coeff:     -0.811D+00 0.181D+01
 Gap=     0.025 Goal=   None    Shift=    0.000
 RMSDP=4.73D-03 MaxDP=2.20D-01 DE=-3.25D-02 OVMax= 9.77D-01

 Cycle   3  Pass 1  IDiag  1:
 E= -649.086308779478     Delta-E=        0.056284071389 Rises=F Damp=F
 DIIS: error= 1.05D-02 at cycle   3 NSaved=   3.
 NSaved= 3 IEnMin= 2 EnMin= -649.142592850866     IErMin= 2 ErrMin= 8.86D-03
 ErrMax= 1.05D-02  0.00D+00 EMaxC= 1.00D-01 BMatC= 6.87D-03 BMatP= 1.02D-02
 IDIUse=3 WtCom= 8.95D-01 WtEn= 1.05D-01
 Rare condition: small coef for last iteration:  0.000D+00
 Coeff-Com: -0.647D+00 0.119D+01 0.460D+00
 Coeff-En:   0.000D+00 0.000D+00 0.100D+01
 Coeff:     -0.647D+00 0.119D+01 0.460D+00
 Gap=    -0.018 Goal=   None    Shift=    0.000
 RMSDP=9.00D-03 MaxDP=4.65D-01 DE= 5.63D-02 OVMax= 9.53D-01

 Cycle   4  Pass 1  IDiag  1:
 E= -649.042116869788     Delta-E=        0.044191909689 Rises=F Damp=F
 DIIS: error= 8.21D-03 at cycle   4 NSaved=   4.
 NSaved= 4 IEnMin= 2 EnMin= -649.142592850866     IErMin= 4 ErrMin= 8.21D-03
 ErrMax= 8.21D-03  0.00D+00 EMaxC= 1.00D-01 BMatC= 5.88D-03 BMatP= 6.87D-03
 IDIUse=3 WtCom= 9.18D-01 WtEn= 8.21D-02
 Coeff-Com: -0.335D+00 0.631D+00 0.427D+00 0.277D+00
 Coeff-En:   0.000D+00 0.000D+00 0.567D+00 0.433D+00
 Coeff:     -0.307D+00 0.579D+00 0.438D+00 0.290D+00
 Gap=     0.001 Goal=   None    Shift=    0.000
 RMSDP=8.50D-03 MaxDP=3.41D-01 DE= 4.42D-02 OVMax= 8.52D-01

 Cycle   5  Pass 1  IDiag  1:
 E= -649.139836621452     Delta-E=       -0.097719751664 Rises=F Damp=F
 DIIS: error= 7.31D-03 at cycle   5 NSaved=   5.
 NSaved= 5 IEnMin= 2 EnMin= -649.142592850866     IErMin= 5 ErrMin= 7.31D-03
 ErrMax= 7.31D-03  0.00D+00 EMaxC= 1.00D-01 BMatC= 2.16D-03 BMatP= 5.88D-03
 IDIUse=3 WtCom= 9.27D-01 WtEn= 7.31D-02
 Coeff-Com: -0.318D+00 0.490D+00 0.196D-01 0.185D+00 0.624D+00
 Coeff-En:   0.000D+00 0.000D+00 0.000D+00 0.274D+00 0.726D+00
 Coeff:     -0.295D+00 0.454D+00 0.182D-01 0.191D+00 0.631D+00
 Gap=     0.011 Goal=   None    Shift=    0.000
 RMSDP=2.83D-03 MaxDP=1.28D-01 DE=-9.77D-02 OVMax= 2.78D-01

 Cycle   6  Pass 1  IDiag  1:
 E= -649.164012876691     Delta-E=       -0.024176255238 Rises=F Damp=F
 DIIS: error= 9.73D-04 at cycle   6 NSaved=   6.
 NSaved= 6 IEnMin= 6 EnMin= -649.164012876691     IErMin= 6 ErrMin= 9.73D-04
 ErrMax= 9.73D-04  0.00D+00 EMaxC= 1.00D-01 BMatC= 1.06D-04 BMatP= 2.16D-03
 IDIUse=3 WtCom= 9.90D-01 WtEn= 9.73D-03
 Coeff-Com: -0.123D+00 0.169D+00-0.374D-01 0.413D-01 0.139D+00 0.811D+00
 Coeff-En:   0.000D+00 0.000D+00 0.000D+00 0.000D+00 0.000D+00 0.100D+01
 Coeff:     -0.122D+00 0.167D+00-0.370D-01 0.409D-01 0.138D+00 0.813D+00
 Gap=     0.020 Goal=   None    Shift=    0.000
 RMSDP=1.30D-03 MaxDP=6.29D-02 DE=-2.42D-02 OVMax= 1.38D-01

 Cycle   7  Pass 1  IDiag  1:
 E= -649.157118996738     Delta-E=        0.006893879952 Rises=F Damp=F
 DIIS: error= 4.38D-03 at cycle   7 NSaved=   7.
 NSaved= 7 IEnMin= 6 EnMin= -649.164012876691     IErMin= 6 ErrMin= 9.73D-04
 ErrMax= 4.38D-03  0.00D+00 EMaxC= 1.00D-01 BMatC= 7.79D-04 BMatP= 1.06D-04
 IDIUse=3 WtCom= 9.90D-01 WtEn= 9.73D-03
 Rare condition: small coef for last iteration:  0.000D+00
 Coeff-Com: -0.641D-01 0.884D-01-0.936D-02 0.523D-01-0.202D+00 0.672D+00
 Coeff-Com:  0.463D+00
 Coeff-En:   0.000D+00 0.000D+00 0.000D+00 0.135D+00 0.000D+00 0.000D+00
 Coeff-En:   0.865D+00
 Coeff:     -0.641D-01 0.884D-01-0.936D-02 0.523D-01-0.202D+00 0.672D+00
 Coeff:      0.463D+00
 Gap=     0.022 Goal=   None    Shift=    0.000
 RMSDP=2.63D-04 MaxDP=1.11D-02 DE= 6.89D-03 OVMax= 2.21D-02

 Cycle   8  Pass 1  IDiag  1:
 E= -649.155124583562     Delta-E=        0.001994413176 Rises=F Damp=F
 DIIS: error= 4.82D-03 at cycle   8 NSaved=   8.
 NSaved= 8 IEnMin= 6 EnMin= -649.164012876691     IErMin= 6 ErrMin= 9.73D-04
 ErrMax= 4.82D-03  0.00D+00 EMaxC= 1.00D-01 BMatC= 9.51D-04 BMatP= 1.06D-04
 IDIUse=3 WtCom= 9.90D-01 WtEn= 9.73D-03
 Rare condition: small coef for last iteration:  0.000D+00
 Coeff-Com: -0.793D-01 0.108D+00-0.102D-01 0.445D-01-0.758D-01 0.686D+00
 Coeff-Com:  0.931D+00-0.604D+00
 Coeff-En:   0.000D+00 0.000D+00 0.000D+00 0.160D+00 0.000D+00 0.000D+00
 Coeff-En:   0.000D+00 0.840D+00
 Coeff:     -0.793D-01 0.108D+00-0.102D-01 0.445D-01-0.758D-01 0.686D+00
 Coeff:      0.931D+00-0.604D+00
 Gap=     0.022 Goal=   None    Shift=    0.000
 RMSDP=1.49D-04 MaxDP=8.07D-03 DE= 1.99D-03 OVMax= 1.39D-02

 Cycle   9  Pass 1  IDiag  1:
 E= -649.156540606083     Delta-E=       -0.001416022521 Rises=F Damp=F
 DIIS: error= 4.44D-03 at cycle   9 NSaved=   9.
 NSaved= 9 IEnMin= 6 EnMin= -649.164012876691     IErMin= 6 ErrMin= 9.73D-04
 ErrMax= 4.44D-03  0.00D+00 EMaxC= 1.00D-01 BMatC= 8.11D-04 BMatP= 1.06D-04
 IDIUse=3 WtCom= 9.90D-01 WtEn= 9.73D-03
 EnCoef did   100 forward-backward iterations
 Coeff-Com: -0.654D-01 0.888D-01 0.516D-02 0.410D-01-0.179D-02 0.522D+00
 Coeff-Com:  0.148D+01-0.328D+01 0.221D+01
 Coeff-En:   0.000D+00 0.000D+00 0.000D+00 0.135D+00 0.000D+00 0.000D+00
 Coeff-En:   0.846D+00 0.000D+00 0.185D-01
 Coeff:     -0.648D-01 0.880D-01 0.511D-02 0.419D-01-0.177D-02 0.517D+00
 Coeff:      0.147D+01-0.325D+01 0.219D+01
 Gap=     0.021 Goal=   None    Shift=    0.000
 RMSDP=2.68D-04 MaxDP=1.40D-02 DE=-1.42D-03 OVMax= 2.78D-02

 Cycle  10  Pass 1  IDiag  1:
 E= -649.159038149650     Delta-E=       -0.002497543567 Rises=F Damp=F
 DIIS: error= 3.65D-03 at cycle  10 NSaved=  10.
 NSaved=10 IEnMin= 6 EnMin= -649.164012876691     IErMin= 6 ErrMin= 9.73D-04
 ErrMax= 3.65D-03  0.00D+00 EMaxC= 1.00D-01 BMatC= 5.69D-04 BMatP= 1.06D-04
 IDIUse=3 WtCom= 9.90D-01 WtEn= 9.73D-03
 Coeff-Com:  0.258D-01-0.326D-01 0.536D-01 0.419D-01-0.537D-01-0.429D-01
 Coeff-Com:  0.110D+01-0.340D+01-0.780D+00 0.409D+01
 Coeff-En:   0.000D+00 0.000D+00 0.000D+00 0.107D+00 0.000D+00 0.000D+00
 Coeff-En:   0.000D+00 0.000D+00 0.000D+00 0.893D+00
 Coeff:      0.256D-01-0.323D-01 0.531D-01 0.425D-01-0.532D-01-0.425D-01
 Coeff:      0.109D+01-0.337D+01-0.773D+00 0.406D+01
 Gap=     0.021 Goal=   None    Shift=    0.000
 RMSDP=3.32D-04 MaxDP=1.59D-02 DE=-2.50D-03 OVMax= 3.48D-02

 Cycle  11  Pass 1  IDiag  1:
 E= -649.161548068421     Delta-E=       -0.002509918771 Rises=F Damp=F
 DIIS: error= 2.68D-03 at cycle  11 NSaved=  11.
 NSaved=11 IEnMin= 6 EnMin= -649.164012876691     IErMin= 6 ErrMin= 9.73D-04
 ErrMax= 2.68D-03  0.00D+00 EMaxC= 1.00D-01 BMatC= 3.09D-04 BMatP= 1.06D-04
 IDIUse=3 WtCom= 9.90D-01 WtEn= 9.73D-03
 Coeff-Com:  0.414D-01-0.545D-01 0.511D-01 0.261D-01 0.104D-01-0.174D+00
 Coeff-Com: -0.395D-01-0.372D+00-0.330D+01 0.307D+01 0.174D+01
 Coeff-En:   0.000D+00 0.000D+00 0.000D+00 0.557D-01 0.000D+00 0.000D+00
 Coeff-En:   0.000D+00 0.000D+00 0.000D+00 0.000D+00 0.944D+00
 Coeff:      0.410D-01-0.540D-01 0.506D-01 0.264D-01 0.103D-01-0.173D+00
 Coeff:     -0.391D-01-0.368D+00-0.327D+01 0.304D+01 0.173D+01
 Gap=     0.020 Goal=   None    Shift=    0.000
 RMSDP=5.38D-04 MaxDP=2.71D-02 DE=-2.51D-03 OVMax= 5.66D-02

 Cycle  12  Pass 1  IDiag  1:
 E= -649.163958410676     Delta-E=       -0.002410342254 Rises=F Damp=F
 DIIS: error= 1.03D-03 at cycle  12 NSaved=  12.
 NSaved=12 IEnMin= 6 EnMin= -649.164012876691     IErMin= 6 ErrMin= 9.73D-04
 ErrMax= 1.03D-03  0.00D+00 EMaxC= 1.00D-01 BMatC= 4.73D-05 BMatP= 1.06D-04
 IDIUse=3 WtCom= 9.90D-01 WtEn= 9.73D-03
 Coeff-Com: -0.120D-02 0.179D-02 0.150D-01 0.769D-02 0.143D-01 0.482D-01
 Coeff-Com: -0.306D+00 0.105D+01-0.181D+01 0.323D+00 0.685D+00 0.967D+00
 Coeff-En:   0.000D+00 0.000D+00 0.000D+00 0.000D+00 0.000D+00 0.608D+00
 Coeff-En:   0.000D+00 0.000D+00 0.000D+00 0.000D+00 0.000D+00 0.392D+00
 Coeff:     -0.119D-02 0.178D-02 0.149D-01 0.762D-02 0.142D-01 0.537D-01
 Coeff:     -0.303D+00 0.104D+01-0.179D+01 0.320D+00 0.678D+00 0.961D+00
 Gap=     0.020 Goal=   None    Shift=    0.000
 RMSDP=2.49D-04 MaxDP=1.14D-02 DE=-2.41D-03 OVMax= 2.36D-02

 Cycle  13  Pass 1  IDiag  1:
 E= -649.164330474537     Delta-E=       -0.000372063862 Rises=F Damp=F
 DIIS: error= 3.30D-04 at cycle  13 NSaved=  13.
 NSaved=13 IEnMin=13 EnMin= -649.164330474537     IErMin=13 ErrMin= 3.30D-04
 ErrMax= 3.30D-04  0.00D+00 EMaxC= 1.00D-01 BMatC= 5.13D-06 BMatP= 4.73D-05
 IDIUse=3 WtCom= 9.97D-01 WtEn= 3.30D-03
 Coeff-Com: -0.335D-02 0.426D-02 0.373D-02 0.222D-02 0.364D-02 0.290D-01
 Coeff-Com: -0.447D-01 0.245D+00-0.260D+00-0.879D-01-0.441D-01 0.253D+00
 Coeff-Com:  0.899D+00
 Coeff-En:   0.000D+00 0.000D+00 0.000D+00 0.000D+00 0.000D+00 0.000D+00
 Coeff-En:   0.000D+00 0.000D+00 0.000D+00 0.000D+00 0.000D+00 0.000D+00
 Coeff-En:   0.100D+01
 Coeff:     -0.334D-02 0.424D-02 0.372D-02 0.222D-02 0.363D-02 0.289D-01
 Coeff:     -0.445D-01 0.244D+00-0.259D+00-0.876D-01-0.440D-01 0.252D+00
 Coeff:      0.900D+00
 Gap=     0.020 Goal=   None    Shift=    0.000
 RMSDP=9.06D-05 MaxDP=4.28D-03 DE=-3.72D-04 OVMax= 9.49D-03

 Cycle  14  Pass 1  IDiag  1:
 E= -649.164374669136     Delta-E=       -0.000044194599 Rises=F Damp=F
 DIIS: error= 6.49D-05 at cycle  14 NSaved=  14.
 NSaved=14 IEnMin=14 EnMin= -649.164374669136     IErMin=14 ErrMin= 6.49D-05
 ErrMax= 6.49D-05  0.00D+00 EMaxC= 1.00D-01 BMatC= 2.27D-07 BMatP= 5.13D-06
 IDIUse=1 WtCom= 1.00D+00 WtEn= 0.00D+00
 Coeff-Com: -0.646D-03 0.703D-03-0.996D-03-0.268D-03 0.422D-02 0.592D-03
 Coeff-Com:  0.224D-01-0.871D-01 0.173D+00-0.810D-01-0.856D-01-0.466D-01
 Coeff-Com:  0.134D+00 0.966D+00
 Coeff:     -0.646D-03 0.703D-03-0.996D-03-0.268D-03 0.422D-02 0.592D-03
 Coeff:      0.224D-01-0.871D-01 0.173D+00-0.810D-01-0.856D-01-0.466D-01
 Coeff:      0.134D+00 0.966D+00
 Gap=     0.020 Goal=   None    Shift=    0.000
 RMSDP=3.82D-05 MaxDP=1.77D-03 DE=-4.42D-05 OVMax= 3.69D-03

 Cycle  15  Pass 1  IDiag  1:
 E= -649.164376270226     Delta-E=       -0.000001601090 Rises=F Damp=F
 DIIS: error= 3.14D-05 at cycle  15 NSaved=  15.
 NSaved=15 IEnMin=15 EnMin= -649.164376270226     IErMin=15 ErrMin= 3.14D-05
 ErrMax= 3.14D-05  0.00D+00 EMaxC= 1.00D-01 BMatC= 4.88D-08 BMatP= 2.27D-07
 IDIUse=1 WtCom= 1.00D+00 WtEn= 0.00D+00
 Coeff-Com: -0.731D-04 0.107D-03-0.609D-03-0.344D-03 0.464D-03 0.162D-02
 Coeff-Com:  0.128D-02-0.740D-02 0.103D-01 0.880D-03 0.151D-01-0.270D-02
 Coeff-Com: -0.503D-01-0.580D-01 0.109D+01
 Coeff:     -0.731D-04 0.107D-03-0.609D-03-0.344D-03 0.464D-03 0.162D-02
 Coeff:      0.128D-02-0.740D-02 0.103D-01 0.880D-03 0.151D-01-0.270D-02
 Coeff:     -0.503D-01-0.580D-01 0.109D+01
 Gap=     0.020 Goal=   None    Shift=    0.000
 RMSDP=7.22D-06 MaxDP=2.84D-04 DE=-1.60D-06 OVMax= 7.20D-04

 Cycle  16  Pass 1  IDiag  1:
 E= -649.164376638768     Delta-E=       -0.000000368542 Rises=F Damp=F
 DIIS: error= 1.10D-05 at cycle  16 NSaved=  16.
 NSaved=16 IEnMin=16 EnMin= -649.164376638768     IErMin=16 ErrMin= 1.10D-05
 ErrMax= 1.10D-05  0.00D+00 EMaxC= 1.00D-01 BMatC= 6.44D-09 BMatP= 4.88D-08
 IDIUse=1 WtCom= 1.00D+00 WtEn= 0.00D+00
 Coeff-Com: -0.136D-03 0.189D-03-0.250D-03-0.147D-03-0.317D-03 0.122D-02
 Coeff-Com: -0.102D-02 0.756D-02-0.574D-02 0.280D-02 0.502D-02-0.308D-02
 Coeff-Com: -0.191D-01-0.389D-01 0.722D-01 0.980D+00
 Coeff:     -0.136D-03 0.189D-03-0.250D-03-0.147D-03-0.317D-03 0.122D-02
 Coeff:     -0.102D-02 0.756D-02-0.574D-02 0.280D-02 0.502D-02-0.308D-02
 Coeff:     -0.191D-01-0.389D-01 0.722D-01 0.980D+00
 Gap=     0.020 Goal=   None    Shift=    0.000
 RMSDP=3.01D-06 MaxDP=1.20D-04 DE=-3.69D-07 OVMax= 2.71D-04

 Cycle  17  Pass 1  IDiag  1:
 E= -649.164376687628     Delta-E=       -0.000000048860 Rises=F Damp=F
 DIIS: error= 3.74D-06 at cycle  17 NSaved=  17.
 NSaved=17 IEnMin=17 EnMin= -649.164376687628     IErMin=17 ErrMin= 3.74D-06
 ErrMax= 3.74D-06  0.00D+00 EMaxC= 1.00D-01 BMatC= 7.17D-10 BMatP= 6.44D-09
 IDIUse=1 WtCom= 1.00D+00 WtEn= 0.00D+00
 Coeff-Com: -0.897D-04 0.116D-03-0.710D-05-0.145D-04-0.129D-04 0.344D-03
 Coeff-Com: -0.848D-03 0.627D-02-0.542D-02-0.322D-03-0.142D-02 0.192D-02
 Coeff-Com:  0.220D-02 0.138D-01-0.185D+00 0.277D+00 0.891D+00
 Coeff:     -0.897D-04 0.116D-03-0.710D-05-0.145D-04-0.129D-04 0.344D-03
 Coeff:     -0.848D-03 0.627D-02-0.542D-02-0.322D-03-0.142D-02 0.192D-02
 Coeff:      0.220D-02 0.138D-01-0.185D+00 0.277D+00 0.891D+00
 Gap=     0.020 Goal=   None    Shift=    0.000
 RMSDP=9.29D-07 MaxDP=4.34D-05 DE=-4.89D-08 OVMax= 7.96D-05

 Cycle  18  Pass 1  IDiag  1:
 E= -649.164376692709     Delta-E=       -0.000000005081 Rises=F Damp=F
 DIIS: error= 1.36D-06 at cycle  18 NSaved=  18.
 NSaved=18 IEnMin=18 EnMin= -649.164376692709     IErMin=18 ErrMin= 1.36D-06
 ErrMax= 1.36D-06  0.00D+00 EMaxC= 1.00D-01 BMatC= 9.75D-11 BMatP= 7.17D-10
 IDIUse=1 WtCom= 1.00D+00 WtEn= 0.00D+00
 Coeff-Com:  0.220D-06-0.876D-06-0.442D-05-0.247D-05-0.198D-04-0.567D-05
 Coeff-Com: -0.605D-04 0.302D-03 0.192D-03-0.625D-03 0.149D-03 0.186D-04
 Coeff-Com:  0.926D-03 0.510D-02-0.104D-01-0.611D-01 0.649D-01 0.100D+01
 Coeff:      0.220D-06-0.876D-06-0.442D-05-0.247D-05-0.198D-04-0.567D-05
 Coeff:     -0.605D-04 0.302D-03 0.192D-03-0.625D-03 0.149D-03 0.186D-04
 Coeff:      0.926D-03 0.510D-02-0.104D-01-0.611D-01 0.649D-01 0.100D+01
 Gap=     0.020 Goal=   None    Shift=    0.000
 RMSDP=4.51D-07 MaxDP=2.27D-05 DE=-5.08D-09 OVMax= 4.49D-05

 Cycle  19  Pass 1  IDiag  1:
 E= -649.164376693548     Delta-E=       -0.000000000839 Rises=F Damp=F
 DIIS: error= 1.03D-07 at cycle  19 NSaved=  19.
 NSaved=19 IEnMin=19 EnMin= -649.164376693548     IErMin=19 ErrMin= 1.03D-07
 ErrMax= 1.03D-07  0.00D+00 EMaxC= 1.00D-01 BMatC= 5.54D-13 BMatP= 9.75D-11
 IDIUse=1 WtCom= 1.00D+00 WtEn= 0.00D+00
 Coeff-Com:  0.498D-05-0.656D-05-0.115D-05-0.125D-06-0.109D-04-0.134D-04
 Coeff-Com:  0.171D-04-0.227D-03 0.363D-03-0.173D-03 0.912D-04 0.267D-05
 Coeff-Com:  0.119D-03 0.476D-03 0.745D-02-0.312D-01-0.286D-01 0.250D+00
 Coeff-Com:  0.802D+00
 Coeff:      0.498D-05-0.656D-05-0.115D-05-0.125D-06-0.109D-04-0.134D-04
 Coeff:      0.171D-04-0.227D-03 0.363D-03-0.173D-03 0.912D-04 0.267D-05
 Coeff:      0.119D-03 0.476D-03 0.745D-02-0.312D-01-0.286D-01 0.250D+00
 Coeff:      0.802D+00
 Gap=     0.020 Goal=   None    Shift=    0.000
 RMSDP=5.76D-08 MaxDP=2.75D-06 DE=-8.39D-10 OVMax= 5.49D-06

 Cycle  20  Pass 1  IDiag  1:
 E= -649.164376693552     Delta-E=       -0.000000000004 Rises=F Damp=F
 DIIS: error= 5.54D-08 at cycle  20 NSaved=  20.
 NSaved=20 IEnMin=20 EnMin= -649.164376693552     IErMin=20 ErrMin= 5.54D-08
 ErrMax= 5.54D-08  0.00D+00 EMaxC= 1.00D-01 BMatC= 1.61D-13 BMatP= 5.54D-13
 IDIUse=1 WtCom= 1.00D+00 WtEn= 0.00D+00
 Coeff-Com:  0.129D-06-0.126D-06-0.214D-06-0.594D-07-0.396D-06 0.990D-06
 Coeff-Com:  0.143D-04-0.526D-04 0.733D-04-0.142D-04-0.279D-04-0.705D-08
 Coeff-Com: -0.112D-04-0.280D-03 0.121D-02-0.122D-03-0.269D-02-0.464D-02
 Coeff-Com:  0.117D+00 0.890D+00
 Coeff:      0.129D-06-0.126D-06-0.214D-06-0.594D-07-0.396D-06 0.990D-06
 Coeff:      0.143D-04-0.526D-04 0.733D-04-0.142D-04-0.279D-04-0.705D-08
 Coeff:     -0.112D-04-0.280D-03 0.121D-02-0.122D-03-0.269D-02-0.464D-02
 Coeff:      0.117D+00 0.890D+00
 Gap=     0.020 Goal=   None    Shift=    0.000
 RMSDP=1.81D-08 MaxDP=9.54D-07 DE=-3.64D-12 OVMax= 1.96D-06

 Cycle  21  Pass 1  IDiag  1:
 E= -649.164376693557     Delta-E=       -0.000000000005 Rises=F Damp=F
 DIIS: error= 9.31D-10 at cycle  21 NSaved=  20.
 NSaved=20 IEnMin=20 EnMin= -649.164376693557     IErMin=20 ErrMin= 9.31D-10
 ErrMax= 9.31D-10  0.00D+00 EMaxC= 1.00D-01 BMatC= 1.16D-16 BMatP= 1.61D-13
 IDIUse=1 WtCom= 1.00D+00 WtEn= 0.00D+00
 Large coefficients: NSaved= 20 BigCof=    0.00 CofMax=   10.00 Det=-1.17D-15
 Inversion failed.  Reducing to 19 matrices.
 Large coefficients: NSaved= 19 BigCof=    0.00 CofMax=   10.00 Det=-1.18D-15
 Inversion failed.  Reducing to 18 matrices.
 Large coefficients: NSaved= 18 BigCof=    0.00 CofMax=   10.00 Det=-1.18D-15
 Inversion failed.  Reducing to 17 matrices.
 Large coefficients: NSaved= 17 BigCof=    0.00 CofMax=   10.00 Det=-1.19D-15
 Inversion failed.  Reducing to 16 matrices.
 Large coefficients: NSaved= 16 BigCof=    0.00 CofMax=   10.00 Det=-1.20D-15
 Inversion failed.  Reducing to 15 matrices.
 Coeff-Com:  0.658D-06 0.117D-05-0.208D-05 0.215D-05-0.115D-05 0.610D-06
 Coeff-Com:  0.874D-06-0.972D-04 0.248D-03 0.459D-03-0.992D-03-0.519D-02
 Coeff-Com: -0.359D-02 0.102D+00 0.907D+00
 Coeff:      0.658D-06 0.117D-05-0.208D-05 0.215D-05-0.115D-05 0.610D-06
 Coeff:      0.874D-06-0.972D-04 0.248D-03 0.459D-03-0.992D-03-0.519D-02
 Coeff:     -0.359D-02 0.102D+00 0.907D+00
 Gap=     0.020 Goal=   None    Shift=    0.000
 RMSDP=1.05D-09 MaxDP=2.89D-08 DE=-5.23D-12 OVMax= 4.69D-08

 SCF Done:  E(RB3LYP) =  -649.164376694     A.U. after   21 cycles
            NFock= 21  Conv=0.10D-08     -V/T= 2.0028
 KE= 6.473831213900D+02 PE=-1.739187605056D+03 EE= 3.524611055951D+02
 Leave Link  502 at Wed Aug 23 10:07:58 2023, MaxMem=  1610612736 cpu:              29.4 elap:               2.1
 (Enter /home/sekinelabo/g16/l601.exe)
 Copying SCF densities to generalized density rwf, IOpCl= 0 IROHF=0.

 **********************************************************************

            Population analysis using the SCF Density.

 **********************************************************************

 Orbital symmetries:
       Occupied  (A) (A) (A) (A) (A) (A) (A) (A) (A) (A) (A) (A)
                 (A) (A) (A) (A) (A) (A) (A) (A) (A) (A)
       Virtual   (A) (A) (A) (A) (A) (A) (A) (A) (A) (A) (A) (A)
                 (A) (A) (A) (A) (A) (A) (A) (A) (A) (A) (A) (A)
                 (A) (A) (A) (A) (A) (A) (A) (A) (A) (A) (A) (A)
                 (A) (A) (A) (A) (A) (A) (A) (A) (A) (A) (A) (A)
                 (A) (A) (A) (A) (A) (A) (A) (A) (A) (A) (A) (A)
                 (A) (A) (A) (A) (A) (A) (A) (A) (A) (A) (A) (A)
                 (A) (A) (A) (A) (A) (A) (A) (A) (A) (A) (A) (A)
                 (A) (A) (A) (A) (A) (A) (A) (A) (A) (A) (A) (A)
                 (A) (A)
 The electronic state is 1-A.
 Alpha  occ. eigenvalues --  -38.47341 -38.46063 -38.45140 -38.44273  -2.23238
 Alpha  occ. eigenvalues --   -2.21989  -2.20939  -2.19964  -1.17282  -1.16846
 Alpha  occ. eigenvalues --   -1.16773  -1.15657  -1.15600  -1.15518  -1.14630
 Alpha  occ. eigenvalues --   -1.14606  -1.14566  -1.13640  -1.13639  -1.13617
 Alpha  occ. eigenvalues --   -0.16653  -0.10086
 Alpha virt. eigenvalues --   -0.08099  -0.05971  -0.04273  -0.02926  -0.01483
 Alpha virt. eigenvalues --   -0.01354  -0.00975  -0.00627  -0.00326  -0.00029
 Alpha virt. eigenvalues --    0.00410   0.00479   0.00648   0.00969   0.01169
 Alpha virt. eigenvalues --    0.01515   0.01561   0.01862   0.01928   0.02001
 Alpha virt. eigenvalues --    0.02147   0.02242   0.02452   0.02603   0.02638
 Alpha virt. eigenvalues --    0.03010   0.03241   0.03460   0.04342   0.04936
 Alpha virt. eigenvalues --    0.05843   0.06392   0.07506   0.07675   0.08302
 Alpha virt. eigenvalues --    0.08599   0.08821   0.08930   0.09041   0.09678
 Alpha virt. eigenvalues --    0.10114   0.10841   0.11504   0.11704   0.13251
 Alpha virt. eigenvalues --    0.15941   0.25232   0.26350   0.28720   0.30265
 Alpha virt. eigenvalues --    0.31801   0.32374   0.32950   0.35770   0.35794
 Alpha virt. eigenvalues --    0.36079   0.36183   0.36656   0.37547   0.39479
 Alpha virt. eigenvalues --    0.41146   0.41549   0.41830   0.42583   0.43006
 Alpha virt. eigenvalues --    0.43336   0.43658   0.44011   0.44066   0.45477
 Alpha virt. eigenvalues --    0.46102   0.47778   0.48994   0.49853   0.54823
 Alpha virt. eigenvalues --    0.55998   0.63301   0.88184   2.02218   2.04092
 Alpha virt. eigenvalues --    2.06496   2.16485   4.40797   4.41245   4.42969
 Alpha virt. eigenvalues --    4.43788   4.44416   4.44492   4.44691   4.45584
 Alpha virt. eigenvalues --    4.46612   4.47566   4.54616   4.80180  96.21549
 Alpha virt. eigenvalues --   96.23747  96.28709  96.39296
          Condensed to atoms (all electrons):
               1          2          3          4
     1  Na  11.082905   0.205893   0.194403  -0.146078
     2  Na   0.205893  11.070253  -0.028178  -0.099320
     3  Na   0.194403  -0.028178  10.382394   0.104395
     4  Na  -0.146078  -0.099320   0.104395  11.002217
 Mulliken charges:
               1
     1  Na  -0.337123
     2  Na  -0.148648
     3  Na   0.346986
     4  Na   0.138785
 Sum of Mulliken charges =  -0.00000
 Mulliken charges with hydrogens summed into heavy atoms:
               1
     1  Na  -0.337123
     2  Na  -0.148648
     3  Na   0.346986
     4  Na   0.138785
 Electronic spatial extent (au):  <R**2>=           1973.6695
 Charge=             -0.0000 electrons
 Dipole moment (field-independent basis, Debye):
    X=             -4.3277    Y=              0.4587    Z=             -0.1458  Tot=              4.3543
 Quadrupole moment (field-independent basis, Debye-Ang):
   XX=            -47.9985   YY=            -36.7593   ZZ=            -44.1840
   XY=             -5.0774   XZ=              0.8501   YZ=             -1.5179
 Traceless Quadrupole moment (field-independent basis, Debye-Ang):
   XX=             -5.0179   YY=              6.2213   ZZ=             -1.2034
   XY=             -5.0774   XZ=              0.8501   YZ=             -1.5179
 Octapole moment (field-independent basis, Debye-Ang**2):
  XXX=            -77.4215  YYY=             15.0569  ZZZ=              0.3730  XYY=            -42.9867
  XXY=             11.5377  XXZ=             -5.9070  XZZ=            -18.6036  YZZ=              1.7825
  YYZ=             -3.4830  XYZ=              1.5853
 Hexadecapole moment (field-independent basis, Debye-Ang**3):
 XXXX=          -3165.2155 YYYY=           -483.4240 ZZZZ=           -208.4817 XXXY=            -31.2418
 XXXZ=             -0.5912 YYYX=            -58.6555 YYYZ=            -12.4003 ZZZX=              3.8567
 ZZZY=             -8.6116 XXYY=           -569.2922 XXZZ=           -578.7119 YYZZ=           -119.9244
 XXYZ=             -4.9107 YYXZ=              7.6138 ZZXY=            -11.6369
 N-N= 9.017900137692D+01 E-N=-1.739187604963D+03  KE= 6.473831213900D+02
 No NMR shielding tensors so no spin-rotation constants.
 Leave Link  601 at Wed Aug 23 10:07:58 2023, MaxMem=  1610612736 cpu:               0.9 elap:               0.1
 (Enter /home/sekinelabo/g16/l701.exe)
 ... and contract with generalized density number  0.
 Compute integral first derivatives.
 Leave Link  701 at Wed Aug 23 10:07:58 2023, MaxMem=  1610612736 cpu:               1.2 elap:               0.1
 (Enter /home/sekinelabo/g16/l702.exe)
 L702 exits ... SP integral derivatives will be done elsewhere.
 Leave Link  702 at Wed Aug 23 10:07:59 2023, MaxMem=  1610612736 cpu:               0.3 elap:               0.0
 (Enter /home/sekinelabo/g16/l703.exe)
 Integral derivatives from FoFJK, PRISM(SPDF).
 Compute integral first derivatives, UseDBF=F ICtDFT=           0.
 Calling FoFJK, ICntrl=      2127 FMM=F ISym2X=0 I1Cent= 0 IOpClX= 0 NMat=1 NMatS=1 NMatT=0.
 FoFJK:  IHMeth= 1 ICntrl=    2127 DoSepK=F KAlg= 0 I1Cent=           0 FoldK=F
 IRaf=         0 NMat=       1 IRICut=       1 DoRegI=T DoRafI=F ISym2E= 0 IDoP0=0 IntGTp=1.
 FoFCou: FMM=F IPFlag=           0 FMFlag=      100000 FMFlg1=         800
         NFxFlg=           0 DoJE=F BraDBF=F KetDBF=F FulRan=T
         wScrn=  0.000000 ICntrl=      2127 IOpCl=  0 I1Cent=           0 NGrid=           0
         NMat0=    1 NMatS0=      1 NMatT0=    0 NMatD0=    1 NMtDS0=    0 NMtDT0=    0
 Symmetry not used in FoFCou.
 Leave Link  703 at Wed Aug 23 10:07:59 2023, MaxMem=  1610612736 cpu:               5.8 elap:               0.4
 (Enter /home/sekinelabo/g16/l716.exe)
 Dipole        =-1.70263010D+00 1.80456092D-01-5.73593525D-02
 ***** Axes restored to original set *****
 -------------------------------------------------------------------
 Center     Atomic                   Forces (Hartrees/Bohr)
 Number     Number              X              Y              Z
 -------------------------------------------------------------------
      1       11          -0.005122788    0.001325334   -0.022852229
      2       11           0.002380704    0.000234995    0.002690046
      3       11           0.000677312   -0.000751612    0.017960340
      4       11           0.002064771   -0.000808717    0.002201843
 -------------------------------------------------------------------
 Cartesian Forces:  Max     0.022852229 RMS     0.008643620
 Z-matrix is all fixed cartesians, so copy forces.
 Force constants in Cartesian coordinates: 
                1             2             3             4             5 
      1  0.312636D-01
      2 -0.177259D-01  0.100503D-01
      3  0.959588D-02 -0.544069D-02  0.103847D+00
      4  0.000000D+00  0.000000D+00  0.000000D+00  0.100000D+01
      5  0.000000D+00  0.000000D+00  0.000000D+00  0.000000D+00  0.100000D+01
      6  0.000000D+00  0.000000D+00  0.000000D+00  0.000000D+00  0.000000D+00
      7 -0.118584D-01  0.672350D-02 -0.942526D-02  0.000000D+00  0.000000D+00
      8  0.672350D-02 -0.381210D-02  0.534396D-02  0.000000D+00  0.000000D+00
      9  0.718895D-02 -0.407601D-02 -0.952247D-01  0.000000D+00  0.000000D+00
     10 -0.194052D-01  0.110024D-01 -0.170618D-03  0.000000D+00  0.000000D+00
     11  0.110024D-01 -0.623819D-02  0.967372D-04  0.000000D+00  0.000000D+00
     12 -0.167848D-01  0.951671D-02 -0.862248D-02  0.000000D+00  0.000000D+00
                6             7             8             9            10 
      6  0.100000D+01
      7  0.000000D+00  0.230267D-01
      8  0.000000D+00 -0.130558D-01  0.740239D-02
      9  0.000000D+00 -0.805643D-02  0.456786D-02  0.102282D+00
     10  0.000000D+00 -0.111684D-01  0.633226D-02  0.867481D-03  0.305736D-01
     11  0.000000D+00  0.633226D-02 -0.359028D-02 -0.491847D-03 -0.173347D-01
     12  0.000000D+00  0.174817D-01 -0.991181D-02 -0.705678D-02 -0.696863D-03
               11            12 
     11  0.982847D-02
     12  0.395109D-03  0.156793D-01
 Leave Link  716 at Wed Aug 23 10:07:59 2023, MaxMem=  1610612736 cpu:               0.3 elap:               0.0
 (Enter /home/sekinelabo/g16/l103.exe)

 GradGradGradGradGradGradGradGradGradGradGradGradGradGradGradGradGradGrad
 Berny optimization.
 Search for a local minimum.
 Step number   1 out of a maximum of    2
 All quantities printed in internal units (Hartrees-Bohrs-Radians)
 Second derivative matrix not updated -- first step.
 The second derivative matrix:
                          X1        Y1        Z1        X2        Y2
           X1           0.03126
           Y1          -0.01773   0.01005
           Z1           0.00960  -0.00544   0.10385
           X2           0.00000   0.00000   0.00000   1.00000
           Y2           0.00000   0.00000   0.00000   0.00000   1.00000
           Z2           0.00000   0.00000   0.00000   0.00000  -0.00000
           X3          -0.01186   0.00672  -0.00943   0.00000   0.00000
           Y3           0.00672  -0.00381   0.00534   0.00000   0.00000
           Z3           0.00719  -0.00408  -0.09522   0.00000   0.00000
           X4          -0.01941   0.01100  -0.00017   0.00000   0.00000
           Y4           0.01100  -0.00624   0.00010   0.00000   0.00000
           Z4          -0.01678   0.00952  -0.00862   0.00000   0.00000
                          Z2        X3        Y3        Z3        X4
           Z2           1.00000
           X3           0.00000   0.02303
           Y3           0.00000  -0.01306   0.00740
           Z3           0.00000  -0.00806   0.00457   0.10228
           X4           0.00000  -0.01117   0.00633   0.00087   0.03057
           Y4           0.00000   0.00633  -0.00359  -0.00049  -0.01733
           Z4           0.00000   0.01748  -0.00991  -0.00706  -0.00070
                          Y4        Z4
           Y4           0.00983
           Z4           0.00040   0.01568
 ITU=  0
     Eigenvalues ---    0.05813   0.06474   0.07747   0.15091   0.19835
     Eigenvalues ---    0.75000
 Angle between quadratic step and forces=  17.68 degrees.
 Linear search not attempted -- first point.
 B after Tr=    -0.000000    0.000000    0.000000
         Rot=    1.000000   -0.000000   -0.000000    0.000000 Ang=   0.00 deg.
 Variable       Old X    -DE/DX   Delta X   Delta X   Delta X     New X
                                 (Linear)    (Quad)   (Total)
    X1        0.00000  -0.00512   0.00000  -0.05729  -0.05729  -0.05729
    Y1        0.00000   0.00133   0.00000   0.01481   0.01481   0.01481
    Z1       -0.00000  -0.02285   0.00000  -0.11960  -0.11960  -0.11960
    X2       -8.04313   0.00238   0.00000   0.00298   0.00298  -8.04015
    Y2       -0.00000   0.00023   0.00000   0.00505   0.00505   0.00505
    Z2       -7.00922   0.00269   0.00000   0.00431   0.00431  -7.00491
    X3        0.00000   0.00068   0.00000   0.01865   0.01865   0.01865
    Y3       -0.00000  -0.00075   0.00000  -0.00741  -0.00741  -0.00741
    Z3        4.74745   0.01796   0.00000   0.08467   0.08467   4.83211
    X4        5.22141   0.00206   0.00000   0.03566   0.03566   5.25707
    Y4       -2.96045  -0.00081   0.00000  -0.01245  -0.01245  -2.97289
    Z4        1.61520   0.00220   0.00000   0.03063   0.03063   1.64583
         Item               Value     Threshold  Converged?
 Maximum Force            0.022852     0.000450     NO 
 RMS     Force            0.008644     0.000300     NO 
 Maximum Displacement     0.119599     0.001800     NO 
 RMS     Displacement     0.048127     0.001200     NO 
 Predicted change in Energy=-2.378028D-03
 GradGradGradGradGradGradGradGradGradGradGradGradGradGradGradGradGradGrad

 Leave Link  103 at Wed Aug 23 10:07:59 2023, MaxMem=  1610612736 cpu:               0.1 elap:               0.0
 (Enter /home/sekinelabo/g16/l9999.exe)
 1\1\GINC-SEKINELABO-XA7R-R37\Force\RB3LYP\6-311+G(d)\Na4\SEKINELABO\23
 -Aug-2023\0\\#p B3LYP/6-311+g(d) force\\\0,1\Na,0.,0.,0.\Na,-4.2562423
 05,0.,-3.7091175331\Na,0.,0.,2.5122413505\Na,2.7630507161,-1.566601696
 6,0.8547288199\\Version=ES64L-G16RevB.01\State=1-A\HF=-649.1643767\RMS
 D=1.046e-09\RMSF=8.644e-03\Dipole=1.152888,-0.1734816,1.255212\Quadrup
 ole=-3.8045011,-1.0433066,4.8478077,0.3805938,-3.4185705,1.6173153\PG=
 C01 [X(Na4)]\\@


 SCIENCE AND PEACE WILL TRIUMPH OVER IGNORANCE AND WAR

                          -- PASTEUR
 Job cpu time:       0 days  0 hours  0 minutes 44.4 seconds.
 Elapsed time:       0 days  0 hours  0 minutes  3.1 seconds.
 File lengths (MBytes):  RWF=     10 Int=      0 D2E=      0 Chk=      2 Scr=      1
 Normal termination of Gaussian 16 at Wed Aug 23 10:07:59 2023.
 Initial command:
 /home/sekinelabo/g16/l1.exe "/home/sekinelabo/g16temp/Gau-2966229.inp" -scrdir="/home/sekinelabo/g16temp/"
 Entering Link 1 = /home/sekinelabo/g16/l1.exe PID=   2967925.
  
 Copyright (c) 1988-2017, Gaussian, Inc.  All Rights Reserved.
  
 This is part of the Gaussian(R) 16 program.  It is based on
 the Gaussian(R) 09 system (copyright 2009, Gaussian, Inc.),
 the Gaussian(R) 03 system (copyright 2003, Gaussian, Inc.),
 the Gaussian(R) 98 system (copyright 1998, Gaussian, Inc.),
 the Gaussian(R) 94 system (copyright 1995, Gaussian, Inc.),
 the Gaussian 92(TM) system (copyright 1992, Gaussian, Inc.),
 the Gaussian 90(TM) system (copyright 1990, Gaussian, Inc.),
 the Gaussian 88(TM) system (copyright 1988, Gaussian, Inc.),
 the Gaussian 86(TM) system (copyright 1986, Carnegie Mellon
 University), and the Gaussian 82(TM) system (copyright 1983,
 Carnegie Mellon University). Gaussian is a federally registered
 trademark of Gaussian, Inc.
  
 This software contains proprietary and confidential information,
 including trade secrets, belonging to Gaussian, Inc.
  
 This software is provided under written license and may be
 used, copied, transmitted, or stored only in accord with that
 written license.
  
 The following legend is applicable only to US Government
 contracts under FAR:
  
                    RESTRICTED RIGHTS LEGEND
  
 Use, reproduction and disclosure by the US Government is
 subject to restrictions as set forth in subparagraphs (a)
 and (c) of the Commercial Computer Software - Restricted
 Rights clause in FAR 52.227-19.
  
 Gaussian, Inc.
 340 Quinnipiac St., Bldg. 40, Wallingford CT 06492
  
  
 ---------------------------------------------------------------
 Warning -- This program may not be used in any manner that
 competes with the business of Gaussian, Inc. or will provide
 assistance to any competitor of Gaussian, Inc.  The licensee
 of this program is prohibited from giving any competitor of
 Gaussian, Inc. access to this program.  By using this program,
 the user acknowledges that Gaussian, Inc. is engaged in the
 business of creating and licensing software in the field of
 computational chemistry and represents and warrants to the
 licensee that it is not a competitor of Gaussian, Inc. and that
 it will not use this program in any manner prohibited above.
 ---------------------------------------------------------------
  

 Cite this work as:
 Gaussian 16, Revision B.01,
 M. J. Frisch, G. W. Trucks, H. B. Schlegel, G. E. Scuseria, 
 M. A. Robb, J. R. Cheeseman, G. Scalmani, V. Barone, 
 G. A. Petersson, H. Nakatsuji, X. Li, M. Caricato, A. V. Marenich, 
 J. Bloino, B. G. Janesko, R. Gomperts, B. Mennucci, H. P. Hratchian, 
 J. V. Ortiz, A. F. Izmaylov, J. L. Sonnenberg, D. Williams-Young, 
 F. Ding, F. Lipparini, F. Egidi, J. Goings, B. Peng, A. Petrone, 
 T. Henderson, D. Ranasinghe, V. G. Zakrzewski, J. Gao, N. Rega, 
 G. Zheng, W. Liang, M. Hada, M. Ehara, K. Toyota, R. Fukuda, 
 J. Hasegawa, M. Ishida, T. Nakajima, Y. Honda, O. Kitao, H. Nakai, 
 T. Vreven, K. Throssell, J. A. Montgomery, Jr., J. E. Peralta, 
 F. Ogliaro, M. J. Bearpark, J. J. Heyd, E. N. Brothers, K. N. Kudin, 
 V. N. Staroverov, T. A. Keith, R. Kobayashi, J. Normand, 
 K. Raghavachari, A. P. Rendell, J. C. Burant, S. S. Iyengar, 
 J. Tomasi, M. Cossi, J. M. Millam, M. Klene, C. Adamo, R. Cammi, 
 J. W. Ochterski, R. L. Martin, K. Morokuma, O. Farkas, 
 J. B. Foresman, and D. J. Fox, Gaussian, Inc., Wallingford CT, 2016.
 
 ******************************************
 Gaussian 16:  ES64L-G16RevB.01 20-Dec-2017
                28-Aug-2023 
 ******************************************
 %NProcShared=16
 Will use up to   16 processors via shared memory.
 %mem=12GB
 %Chk=checkpoint.chk
 -------------------------
 #p B3LYP/6-311+g(d) force
 -------------------------
 1/10=7,30=1,38=1/1,3;
 2/12=2,17=6,18=5,40=1/2;
 3/5=4,6=6,7=11,11=2,25=1,30=1,71=1,74=-5/1,2,3;
 4//1;
 5/5=2,38=5/2;
 6/7=2,8=2,9=2,10=2,28=1/1;
 7/29=1/1,2,3,16;
 1/10=7,30=1/3;
 99//99;
 Leave Link    1 at Mon Aug 28 10:18:17 2023, MaxMem=  1610612736 cpu:               0.2 elap:               0.0
 (Enter /home/sekinelabo/g16/l101.exe)


 Symbolic Z-matrix:
 Charge =  0 Multiplicity = 1
 Na                    0.        0.        0. 
 Na                   -5.34449   0.       -1.60542 
 Na                    0.        0.        5.29013 
 Na                   -1.00306  -2.06534   5.17656 
 
 ITRead=  0  0  0  0
 MicOpt= -1 -1 -1 -1
 NAtoms=      4 NQM=        4 NQMF=       0 NMMI=      0 NMMIF=      0
                NMic=       0 NMicF=      0.
                    Isotopes and Nuclear Properties:
 (Nuclear quadrupole moments (NQMom) in fm**2, nuclear magnetic moments (NMagM)
  in nuclear magnetons)

  Atom         1           2           3           4
 IAtWgt=          23          23          23          23
 AtmWgt=  22.9897697  22.9897697  22.9897697  22.9897697
 NucSpn=           3           3           3           3
 AtZEff=  -0.0000000  -0.0000000  -0.0000000  -0.0000000
 NQMom=   10.4000000  10.4000000  10.4000000  10.4000000
 NMagM=    2.2175200   2.2175200   2.2175200   2.2175200
 AtZNuc=  11.0000000  11.0000000  11.0000000  11.0000000
 Leave Link  101 at Mon Aug 28 10:18:17 2023, MaxMem=  1610612736 cpu:               1.8 elap:               0.1
 (Enter /home/sekinelabo/g16/l103.exe)

 GradGradGradGradGradGradGradGradGradGradGradGradGradGradGradGradGradGrad
 Berny optimization.
 Initialization pass.
 Trust Radius=3.00D-01 FncErr=1.00D-07 GrdErr=1.00D-07 EigMax=2.50D+02 EigMin=1.00D-04
 Number of steps in this run=      2 maximum allowed number of steps=      2.
 GradGradGradGradGradGradGradGradGradGradGradGradGradGradGradGradGradGrad

 Leave Link  103 at Mon Aug 28 10:18:17 2023, MaxMem=  1610612736 cpu:               0.1 elap:               0.0
 (Enter /home/sekinelabo/g16/l202.exe)
                          Input orientation:                          
 ---------------------------------------------------------------------
 Center     Atomic      Atomic             Coordinates (Angstroms)
 Number     Number       Type             X           Y           Z
 ---------------------------------------------------------------------
      1         11           0        0.000000    0.000000    0.000000
      2         11           0       -5.344495    0.000000   -1.605422
      3         11           0        0.000000    0.000000    5.290131
      4         11           0       -1.003061   -2.065340    5.176558
 ---------------------------------------------------------------------
                    Distance matrix (angstroms):
                    1          2          3          4
     1  Na   0.000000
     2  Na   5.580412   0.000000
     3  Na   5.290131   8.724234   0.000000
     4  Na   5.662907   8.313178   2.298838   0.000000
 Stoichiometry    Na4
 Framework group  C1[X(Na4)]
 Deg. of freedom     6
 Full point group                 C1      NOp   1
 Largest Abelian subgroup         C1      NOp   1
 Largest concise Abelian subgroup C1      NOp   1
                         Standard orientation:                         
 ---------------------------------------------------------------------
 Center     Atomic      Atomic             Coordinates (Angstroms)
 Number     Number       Type             X           Y           Z
 ---------------------------------------------------------------------
      1         11           0       -1.146305    2.500634   -0.353924
      2         11           0       -5.229720   -1.259450    0.219218
      3         11           0        3.360102    0.067498    0.971832
      4         11           0        3.015923   -1.308681   -0.837126
 ---------------------------------------------------------------------
 Rotational constants (GHZ):           1.9325278           0.4321481           0.3750902
 Leave Link  202 at Mon Aug 28 10:18:17 2023, MaxMem=  1610612736 cpu:               0.0 elap:               0.0
 (Enter /home/sekinelabo/g16/l301.exe)
 Standard basis: 6-311+G(d) (5D, 7F)
 Ernie: Thresh=  0.10000D-02 Tol=  0.10000D-05 Strict=F.
 There are   124 symmetry adapted cartesian basis functions of A   symmetry.
 There are   120 symmetry adapted basis functions of A   symmetry.
   120 basis functions,   200 primitive gaussians,   124 cartesian basis functions
    22 alpha electrons       22 beta electrons
       nuclear repulsion energy        77.7799412013 Hartrees.
 IExCor=  402 DFT=T Ex+Corr=B3LYP ExCW=0 ScaHFX=  0.200000
 ScaDFX=  0.800000  0.720000  1.000000  0.810000 ScalE2=  1.000000  1.000000
 IRadAn=      5 IRanWt=     -1 IRanGd=            0 ICorTp=0 IEmpDi=  4
 NAtoms=    4 NActive=    4 NUniq=    4 SFac= 1.00D+00 NAtFMM=   60 NAOKFM=F Big=F
 Integral buffers will be    131072 words long.
 Raffenetti 2 integral format.
 Two-electron integral symmetry is turned on.
 Leave Link  301 at Mon Aug 28 10:18:17 2023, MaxMem=  1610612736 cpu:               0.4 elap:               0.0
 (Enter /home/sekinelabo/g16/l302.exe)
 NPDir=0 NMtPBC=     1 NCelOv=     1 NCel=       1 NClECP=     1 NCelD=      1
         NCelK=      1 NCelE2=     1 NClLst=     1 CellRange=     0.0.
 One-electron integrals computed using PRISM.
 One-electron integral symmetry used in STVInt
 NBasis=   120 RedAO= T EigKep=  2.05D-05  NBF=   120
 NBsUse=   120 1.00D-06 EigRej= -1.00D+00 NBFU=   120
 Precomputing XC quadrature grid using
 IXCGrd= 4 IRadAn=           5 IRanWt=          -1 IRanGd=           0 AccXCQ= 0.00D+00.
 Generated NRdTot=       0 NPtTot=           0 NUsed=           0 NTot=          32
 NSgBfM=   114   114   114   114   114 MxSgAt=     4 MxSgA2=     4.
 Leave Link  302 at Mon Aug 28 10:18:17 2023, MaxMem=  1610612736 cpu:               1.4 elap:               0.1
 (Enter /home/sekinelabo/g16/l303.exe)
 DipDrv:  MaxL=1.
 Leave Link  303 at Mon Aug 28 10:18:17 2023, MaxMem=  1610612736 cpu:               0.3 elap:               0.0
 (Enter /home/sekinelabo/g16/l401.exe)
 ExpMin= 7.60D-03 ExpMax= 3.62D+04 ExpMxC= 1.21D+03 IAcc=3 IRadAn=         5 AccDes= 0.00D+00
 Harris functional with IExCor=  402 and IRadAn=       5 diagonalized for initial guess.
 HarFok:  IExCor=  402 AccDes= 0.00D+00 IRadAn=         5 IDoV= 1 UseB2=F ITyADJ=14
 ICtDFT=  3500011 ScaDFX=  1.000000  1.000000  1.000000  1.000000
 FoFCou: FMM=F IPFlag=           0 FMFlag=      100000 FMFlg1=           0
         NFxFlg=           0 DoJE=T BraDBF=F KetDBF=T FulRan=T
         wScrn=  0.000000 ICntrl=       500 IOpCl=  0 I1Cent=   200000004 NGrid=           0
         NMat0=    1 NMatS0=      1 NMatT0=    0 NMatD0=    1 NMtDS0=    0 NMtDT0=    0
 Petite list used in FoFCou.
 Harris En= -649.026570689512    
 JPrj=0 DoOrth=F DoCkMO=F.
 Leave Link  401 at Mon Aug 28 10:18:17 2023, MaxMem=  1610612736 cpu:               2.0 elap:               0.1
 (Enter /home/sekinelabo/g16/l502.exe)
 Keep R1 ints in memory in canonical form, NReq=41581754.
 FoFCou: FMM=F IPFlag=           0 FMFlag=           0 FMFlg1=           0
         NFxFlg=           0 DoJE=F BraDBF=F KetDBF=F FulRan=T
         wScrn=  0.000000 ICntrl=       600 IOpCl=  0 I1Cent=           0 NGrid=           0
         NMat0=    1 NMatS0=   7260 NMatT0=    0 NMatD0=    1 NMtDS0=    0 NMtDT0=    0
 Symmetry not used in FoFCou.
 Two-electron integral symmetry not used.
 Closed shell SCF:
 Using DIIS extrapolation, IDIIS=  1040.
 NGot=  1610612736 LenX=  1584221388 LenY=  1584205571
 Requested convergence on RMS density matrix=1.00D-08 within 128 cycles.
 Requested convergence on MAX density matrix=1.00D-06.
 Requested convergence on             energy=1.00D-06.
 No special actions if energy rises.

 Cycle   1  Pass 1  IDiag  1:
 E= -649.140791463715    
 DIIS: error= 1.72D-02 at cycle   1 NSaved=   1.
 NSaved= 1 IEnMin= 1 EnMin= -649.140791463715     IErMin= 1 ErrMin= 1.72D-02
 ErrMax= 1.72D-02  0.00D+00 EMaxC= 1.00D-01 BMatC= 2.67D-02 BMatP= 2.67D-02
 IDIUse=3 WtCom= 8.28D-01 WtEn= 1.72D-01
 Coeff-Com:  0.100D+01
 Coeff-En:   0.100D+01
 Coeff:      0.100D+01
 Gap=     0.030 Goal=   None    Shift=    0.000
 GapD=    0.030 DampG=0.250 DampE=0.500 DampFc=0.2500 IDamp=-1.
 Damping current iteration by 2.50D-01
 RMSDP=1.97D-03 MaxDP=3.87D-02              OVMax= 4.64D-02

 Cycle   2  Pass 1  IDiag  1:
 E= -649.144611220304     Delta-E=       -0.003819756588 Rises=F Damp=T
 DIIS: error= 1.21D-02 at cycle   2 NSaved=   2.
 NSaved= 2 IEnMin= 2 EnMin= -649.144611220304     IErMin= 2 ErrMin= 1.21D-02
 ErrMax= 1.21D-02  0.00D+00 EMaxC= 1.00D-01 BMatC= 1.03D-02 BMatP= 2.67D-02
 IDIUse=3 WtCom= 8.79D-01 WtEn= 1.21D-01
 Coeff-Com: -0.130D+01 0.230D+01
 Coeff-En:   0.000D+00 0.100D+01
 Coeff:     -0.114D+01 0.214D+01
 Gap=     0.030 Goal=   None    Shift=    0.000
 RMSDP=1.45D-03 MaxDP=4.49D-02 DE=-3.82D-03 OVMax= 3.80D-02

 Cycle   3  Pass 1  IDiag  1:
 E= -649.152333256621     Delta-E=       -0.007722036317 Rises=F Damp=F
 DIIS: error= 6.24D-04 at cycle   3 NSaved=   3.
 NSaved= 3 IEnMin= 3 EnMin= -649.152333256621     IErMin= 3 ErrMin= 6.24D-04
 ErrMax= 6.24D-04  0.00D+00 EMaxC= 1.00D-01 BMatC= 5.58D-05 BMatP= 1.03D-02
 IDIUse=3 WtCom= 9.94D-01 WtEn= 6.24D-03
 Coeff-Com:  0.696D-01-0.813D-01 0.101D+01
 Coeff-En:   0.000D+00 0.000D+00 0.100D+01
 Coeff:      0.692D-01-0.808D-01 0.101D+01
 Gap=     0.029 Goal=   None    Shift=    0.000
 RMSDP=1.56D-03 MaxDP=8.54D-02 DE=-7.72D-03 OVMax= 1.63D-01

 Cycle   4  Pass 1  IDiag  1:
 E= -649.145534240132     Delta-E=        0.006799016489 Rises=F Damp=F
 DIIS: error= 3.24D-03 at cycle   4 NSaved=   4.
 NSaved= 4 IEnMin= 3 EnMin= -649.152333256621     IErMin= 3 ErrMin= 6.24D-04
 ErrMax= 3.24D-03  0.00D+00 EMaxC= 1.00D-01 BMatC= 8.59D-04 BMatP= 5.58D-05
 IDIUse=3 WtCom= 1.49D-01 WtEn= 8.51D-01
 Coeff-Com:  0.802D-01-0.106D+00 0.849D+00 0.177D+00
 Coeff-En:   0.000D+00 0.000D+00 0.901D+00 0.989D-01
 Coeff:      0.120D-01-0.158D-01 0.893D+00 0.111D+00
 Gap=     0.030 Goal=   None    Shift=    0.000
 RMSDP=8.67D-04 MaxDP=5.19D-02 DE= 6.80D-03 OVMax= 9.08D-02

 Cycle   5  Pass 1  IDiag  1:
 E= -649.151820346466     Delta-E=       -0.006286106334 Rises=F Damp=F
 DIIS: error= 1.07D-03 at cycle   5 NSaved=   5.
 NSaved= 5 IEnMin= 3 EnMin= -649.152333256621     IErMin= 3 ErrMin= 6.24D-04
 ErrMax= 1.07D-03  0.00D+00 EMaxC= 1.00D-01 BMatC= 1.06D-04 BMatP= 5.58D-05
 IDIUse=3 WtCom= 2.35D-01 WtEn= 7.65D-01
 Coeff-Com: -0.264D-01 0.354D-01 0.309D+00-0.259D+00 0.941D+00
 Coeff-En:   0.000D+00 0.000D+00 0.651D+00 0.000D+00 0.349D+00
 Coeff:     -0.620D-02 0.830D-02 0.571D+00-0.608D-01 0.488D+00
 Gap=     0.030 Goal=   None    Shift=    0.000
 RMSDP=3.72D-04 MaxDP=2.10D-02 DE=-6.29D-03 OVMax= 3.99D-02

 Cycle   6  Pass 1  IDiag  1:
 E= -649.152613600362     Delta-E=       -0.000793253896 Rises=F Damp=F
 DIIS: error= 1.37D-04 at cycle   6 NSaved=   6.
 NSaved= 6 IEnMin= 6 EnMin= -649.152613600362     IErMin= 6 ErrMin= 1.37D-04
 ErrMax= 1.37D-04  0.00D+00 EMaxC= 1.00D-01 BMatC= 2.99D-06 BMatP= 5.58D-05
 IDIUse=3 WtCom= 9.99D-01 WtEn= 1.37D-03
 Coeff-Com: -0.133D-01 0.176D-01 0.696D-01 0.687D-02-0.116D+00 0.104D+01
 Coeff-En:   0.000D+00 0.000D+00 0.101D+00 0.000D+00 0.000D+00 0.899D+00
 Coeff:     -0.133D-01 0.175D-01 0.696D-01 0.686D-02-0.116D+00 0.104D+01
 Gap=     0.030 Goal=   None    Shift=    0.000
 RMSDP=5.55D-05 MaxDP=3.17D-03 DE=-7.93D-04 OVMax= 6.13D-03

 Cycle   7  Pass 1  IDiag  1:
 E= -649.152628012015     Delta-E=       -0.000014411653 Rises=F Damp=F
 DIIS: error= 4.85D-06 at cycle   7 NSaved=   7.
 NSaved= 7 IEnMin= 7 EnMin= -649.152628012015     IErMin= 7 ErrMin= 4.85D-06
 ErrMax= 4.85D-06  0.00D+00 EMaxC= 1.00D-01 BMatC= 4.36D-09 BMatP= 2.99D-06
 IDIUse=1 WtCom= 1.00D+00 WtEn= 0.00D+00
 Coeff-Com: -0.348D-02 0.456D-02 0.206D-02 0.571D-03-0.237D-01 0.175D+00
 Coeff-Com:  0.845D+00
 Coeff:     -0.348D-02 0.456D-02 0.206D-02 0.571D-03-0.237D-01 0.175D+00
 Coeff:      0.845D+00
 Gap=     0.030 Goal=   None    Shift=    0.000
 RMSDP=2.69D-06 MaxDP=1.02D-04 DE=-1.44D-05 OVMax= 1.48D-04

 Cycle   8  Pass 1  IDiag  1:
 E= -649.152628023192     Delta-E=       -0.000000011177 Rises=F Damp=F
 DIIS: error= 2.18D-06 at cycle   8 NSaved=   8.
 NSaved= 8 IEnMin= 8 EnMin= -649.152628023192     IErMin= 8 ErrMin= 2.18D-06
 ErrMax= 2.18D-06  0.00D+00 EMaxC= 1.00D-01 BMatC= 1.05D-09 BMatP= 4.36D-09
 IDIUse=1 WtCom= 1.00D+00 WtEn= 0.00D+00
 Coeff-Com: -0.680D-03 0.883D-03-0.318D-02 0.812D-03-0.724D-02 0.243D-01
 Coeff-Com:  0.361D+00 0.625D+00
 Coeff:     -0.680D-03 0.883D-03-0.318D-02 0.812D-03-0.724D-02 0.243D-01
 Coeff:      0.361D+00 0.625D+00
 Gap=     0.030 Goal=   None    Shift=    0.000
 RMSDP=6.81D-07 MaxDP=3.05D-05 DE=-1.12D-08 OVMax= 2.84D-05

 Cycle   9  Pass 1  IDiag  1:
 E= -649.152628024179     Delta-E=       -0.000000000987 Rises=F Damp=F
 DIIS: error= 3.73D-07 at cycle   9 NSaved=   9.
 NSaved= 9 IEnMin= 9 EnMin= -649.152628024179     IErMin= 9 ErrMin= 3.73D-07
 ErrMax= 3.73D-07  0.00D+00 EMaxC= 1.00D-01 BMatC= 2.66D-11 BMatP= 1.05D-09
 IDIUse=1 WtCom= 1.00D+00 WtEn= 0.00D+00
 Coeff-Com:  0.333D-03-0.442D-03-0.190D-03-0.378D-03 0.380D-02-0.191D-01
 Coeff-Com: -0.184D-01 0.284D-01 0.101D+01
 Coeff:      0.333D-03-0.442D-03-0.190D-03-0.378D-03 0.380D-02-0.191D-01
 Coeff:     -0.184D-01 0.284D-01 0.101D+01
 Gap=     0.030 Goal=   None    Shift=    0.000
 RMSDP=3.32D-07 MaxDP=1.01D-05 DE=-9.87D-10 OVMax= 1.53D-05

 Cycle  10  Pass 1  IDiag  1:
 E= -649.152628024304     Delta-E=       -0.000000000125 Rises=F Damp=F
 DIIS: error= 7.77D-08 at cycle  10 NSaved=  10.
 NSaved=10 IEnMin=10 EnMin= -649.152628024304     IErMin=10 ErrMin= 7.77D-08
 ErrMax= 7.77D-08  0.00D+00 EMaxC= 1.00D-01 BMatC= 1.27D-12 BMatP= 2.66D-11
 IDIUse=1 WtCom= 1.00D+00 WtEn= 0.00D+00
 Coeff-Com:  0.131D-03-0.174D-03-0.455D-04-0.189D-03 0.168D-02-0.795D-02
 Coeff-Com: -0.119D-01 0.763D-03 0.354D+00 0.663D+00
 Coeff:      0.131D-03-0.174D-03-0.455D-04-0.189D-03 0.168D-02-0.795D-02
 Coeff:     -0.119D-01 0.763D-03 0.354D+00 0.663D+00
 Gap=     0.030 Goal=   None    Shift=    0.000
 RMSDP=4.61D-08 MaxDP=1.77D-06 DE=-1.25D-10 OVMax= 3.25D-06

 Cycle  11  Pass 1  IDiag  1:
 E= -649.152628024301     Delta-E=        0.000000000003 Rises=F Damp=F
 DIIS: error= 4.03D-08 at cycle  11 NSaved=  11.
 NSaved=11 IEnMin=10 EnMin= -649.152628024304     IErMin=11 ErrMin= 4.03D-08
 ErrMax= 4.03D-08  0.00D+00 EMaxC= 1.00D-01 BMatC= 2.19D-13 BMatP= 1.27D-12
 IDIUse=1 WtCom= 1.00D+00 WtEn= 0.00D+00
 Coeff-Com:  0.103D-04-0.135D-04 0.186D-04-0.109D-04 0.777D-04-0.445D-03
 Coeff-Com: -0.352D-02-0.474D-02 0.191D-01 0.200D+00 0.790D+00
 Coeff:      0.103D-04-0.135D-04 0.186D-04-0.109D-04 0.777D-04-0.445D-03
 Coeff:     -0.352D-02-0.474D-02 0.191D-01 0.200D+00 0.790D+00
 Gap=     0.030 Goal=   None    Shift=    0.000
 RMSDP=2.04D-08 MaxDP=6.97D-07 DE= 3.18D-12 OVMax= 1.28D-06

 Cycle  12  Pass 1  IDiag  1:
 E= -649.152628024306     Delta-E=       -0.000000000005 Rises=F Damp=F
 DIIS: error= 1.18D-08 at cycle  12 NSaved=  12.
 NSaved=12 IEnMin=12 EnMin= -649.152628024306     IErMin=12 ErrMin= 1.18D-08
 ErrMax= 1.18D-08  0.00D+00 EMaxC= 1.00D-01 BMatC= 1.27D-14 BMatP= 2.19D-13
 IDIUse=1 WtCom= 1.00D+00 WtEn= 0.00D+00
 Coeff-Com: -0.428D-05 0.570D-05 0.667D-05 0.754D-05-0.765D-04 0.306D-03
 Coeff-Com: -0.145D-03-0.800D-03-0.126D-01 0.249D-01 0.182D+00 0.806D+00
 Coeff:     -0.428D-05 0.570D-05 0.667D-05 0.754D-05-0.765D-04 0.306D-03
 Coeff:     -0.145D-03-0.800D-03-0.126D-01 0.249D-01 0.182D+00 0.806D+00
 Gap=     0.030 Goal=   None    Shift=    0.000
 RMSDP=8.91D-09 MaxDP=3.97D-07 DE=-5.00D-12 OVMax= 6.65D-07

 SCF Done:  E(RB3LYP) =  -649.152628024     A.U. after   12 cycles
            NFock= 12  Conv=0.89D-08     -V/T= 2.0027
 KE= 6.473793791903D+02 PE=-1.714312359136D+03 EE= 3.400004107196D+02
 Leave Link  502 at Mon Aug 28 10:18:19 2023, MaxMem=  1610612736 cpu:              18.4 elap:               1.3
 (Enter /home/sekinelabo/g16/l601.exe)
 Copying SCF densities to generalized density rwf, IOpCl= 0 IROHF=0.

 **********************************************************************

            Population analysis using the SCF Density.

 **********************************************************************

 Orbital symmetries:
       Occupied  (A) (A) (A) (A) (A) (A) (A) (A) (A) (A) (A) (A)
                 (A) (A) (A) (A) (A) (A) (A) (A) (A) (A)
       Virtual   (A) (A) (A) (A) (A) (A) (A) (A) (A) (A) (A) (A)
                 (A) (A) (A) (A) (A) (A) (A) (A) (A) (A) (A) (A)
                 (A) (A) (A) (A) (A) (A) (A) (A) (A) (A) (A) (A)
                 (A) (A) (A) (A) (A) (A) (A) (A) (A) (A) (A) (A)
                 (A) (A) (A) (A) (A) (A) (A) (A) (A) (A) (A) (A)
                 (A) (A) (A) (A) (A) (A) (A) (A) (A) (A) (A) (A)
                 (A) (A) (A) (A) (A) (A) (A) (A) (A) (A) (A) (A)
                 (A) (A) (A) (A) (A) (A) (A) (A) (A) (A) (A) (A)
                 (A) (A)
 The electronic state is 1-A.
 Alpha  occ. eigenvalues --  -38.46328 -38.46018 -38.45722 -38.45607  -2.21996
 Alpha  occ. eigenvalues --   -2.21793  -2.21690  -2.21435  -1.16559  -1.15676
 Alpha  occ. eigenvalues --   -1.15662  -1.15641  -1.15367  -1.15366  -1.15335
 Alpha  occ. eigenvalues --   -1.15301  -1.15292  -1.14978  -1.14968  -1.14551
 Alpha  occ. eigenvalues --   -0.14385  -0.11262
 Alpha virt. eigenvalues --   -0.08262  -0.04942  -0.03257  -0.03207  -0.01908
 Alpha virt. eigenvalues --   -0.01755  -0.01318  -0.00707  -0.00379  -0.00097
 Alpha virt. eigenvalues --    0.00193   0.00698   0.00893   0.00996   0.01221
 Alpha virt. eigenvalues --    0.01419   0.01578   0.01599   0.01764   0.01774
 Alpha virt. eigenvalues --    0.01927   0.02140   0.02281   0.02357   0.02590
 Alpha virt. eigenvalues --    0.02722   0.03042   0.03219   0.03569   0.05076
 Alpha virt. eigenvalues --    0.06396   0.06880   0.07523   0.07804   0.07975
 Alpha virt. eigenvalues --    0.08102   0.08215   0.08459   0.08531   0.09757
 Alpha virt. eigenvalues --    0.10159   0.10329   0.11222   0.11419   0.11998
 Alpha virt. eigenvalues --    0.16956   0.29494   0.29781   0.30173   0.30384
 Alpha virt. eigenvalues --    0.33518   0.34416   0.34498   0.34548   0.34576
 Alpha virt. eigenvalues --    0.34713   0.34783   0.34844   0.35267   0.35825
 Alpha virt. eigenvalues --    0.36070   0.40205   0.40499   0.41712   0.41973
 Alpha virt. eigenvalues --    0.42234   0.42541   0.42733   0.42992   0.43329
 Alpha virt. eigenvalues --    0.43548   0.44862   0.46023   0.47108   0.48728
 Alpha virt. eigenvalues --    0.59203   0.59320   0.87480   2.00605   2.01961
 Alpha virt. eigenvalues --    2.03836   2.12819   4.41895   4.42168   4.42393
 Alpha virt. eigenvalues --    4.42578   4.42792   4.43249   4.44553   4.44796
 Alpha virt. eigenvalues --    4.47831   4.48181   4.54146   4.75820  96.19582
 Alpha virt. eigenvalues --   96.21238  96.24152  96.35189
          Condensed to atoms (all electrons):
               1          2          3          4
     1  Na  10.938654   0.151751   0.014979  -0.065018
     2  Na   0.151751  10.893437  -0.014301  -0.026993
     3  Na   0.014979  -0.014301  10.635187   0.395895
     4  Na  -0.065018  -0.026993   0.395895  10.620099
 Mulliken charges:
               1
     1  Na  -0.040366
     2  Na  -0.003893
     3  Na  -0.031759
     4  Na   0.076018
 Sum of Mulliken charges =  -0.00000
 Mulliken charges with hydrogens summed into heavy atoms:
               1
     1  Na  -0.040366
     2  Na  -0.003893
     3  Na  -0.031759
     4  Na   0.076018
 Electronic spatial extent (au):  <R**2>=           2463.3341
 Charge=             -0.0000 electrons
 Dipole moment (field-independent basis, Debye):
    X=              0.8458    Y=             -0.1783    Z=             -0.0463  Tot=              0.8656
 Quadrupole moment (field-independent basis, Debye-Ang):
   XX=            -42.2876   YY=            -37.4109   ZZ=            -40.9893
   XY=              5.6556   XZ=              0.1916   YZ=              2.7357
 Traceless Quadrupole moment (field-independent basis, Debye-Ang):
   XX=             -2.0583   YY=              2.8184   ZZ=             -0.7601
   XY=              5.6556   XZ=              0.1916   YZ=              2.7357
 Octapole moment (field-independent basis, Debye-Ang**2):
  XXX=            -20.1405  YYY=              1.8787  ZZZ=              1.1490  XYY=              7.1963
  XXY=            -30.1582  XXZ=             12.4638  XZZ=             25.1634  YZZ=             -3.8280
  YYZ=             -6.5389  XYZ=             13.4688
 Hexadecapole moment (field-independent basis, Debye-Ang**3):
 XXXX=          -3238.2219 YYYY=           -738.1231 ZZZZ=           -275.2706 XXXY=            212.5103
 XXXZ=              3.3258 YYYX=              8.7437 YYYZ=             13.6556 ZZZX=              5.9737
 ZZZY=             17.3422 XXYY=           -671.8887 XXZZ=           -594.6876 YYZZ=           -173.1766
 XXYZ=             32.1524 YYXZ=            -13.6619 ZZXY=              0.2020
 N-N= 7.777994120128D+01 E-N=-1.714312358413D+03  KE= 6.473793791903D+02
 No NMR shielding tensors so no spin-rotation constants.
 Leave Link  601 at Mon Aug 28 10:18:19 2023, MaxMem=  1610612736 cpu:               0.9 elap:               0.1
 (Enter /home/sekinelabo/g16/l701.exe)
 ... and contract with generalized density number  0.
 Compute integral first derivatives.
 Leave Link  701 at Mon Aug 28 10:18:19 2023, MaxMem=  1610612736 cpu:               1.3 elap:               0.1
 (Enter /home/sekinelabo/g16/l702.exe)
 L702 exits ... SP integral derivatives will be done elsewhere.
 Leave Link  702 at Mon Aug 28 10:18:19 2023, MaxMem=  1610612736 cpu:               0.4 elap:               0.0
 (Enter /home/sekinelabo/g16/l703.exe)
 Integral derivatives from FoFJK, PRISM(SPDF).
 Compute integral first derivatives, UseDBF=F ICtDFT=           0.
 Calling FoFJK, ICntrl=      2127 FMM=F ISym2X=0 I1Cent= 0 IOpClX= 0 NMat=1 NMatS=1 NMatT=0.
 FoFJK:  IHMeth= 1 ICntrl=    2127 DoSepK=F KAlg= 0 I1Cent=           0 FoldK=F
 IRaf=         0 NMat=       1 IRICut=       1 DoRegI=T DoRafI=F ISym2E= 0 IDoP0=0 IntGTp=1.
 FoFCou: FMM=F IPFlag=           0 FMFlag=      100000 FMFlg1=         800
         NFxFlg=           0 DoJE=F BraDBF=F KetDBF=F FulRan=T
         wScrn=  0.000000 ICntrl=      2127 IOpCl=  0 I1Cent=           0 NGrid=           0
         NMat0=    1 NMatS0=      1 NMatT0=    0 NMatD0=    1 NMtDS0=    0 NMtDT0=    0
 Symmetry not used in FoFCou.
 Leave Link  703 at Mon Aug 28 10:18:19 2023, MaxMem=  1610612736 cpu:               5.8 elap:               0.4
 (Enter /home/sekinelabo/g16/l716.exe)
 Dipole        = 3.32766204D-01-7.01609578D-02-1.82109495D-02
 ***** Axes restored to original set *****
 -------------------------------------------------------------------
 Center     Atomic                   Forces (Hartrees/Bohr)
 Number     Number              X              Y              Z
 -------------------------------------------------------------------
      1       11          -0.005181140   -0.000221281   -0.000350348
      2       11           0.004973891    0.000029104    0.001378570
      3       11           0.013825017    0.028379575    0.000995147
      4       11          -0.013617769   -0.028187398   -0.002023370
 -------------------------------------------------------------------
 Cartesian Forces:  Max     0.028379575 RMS     0.013023202
 Z-matrix is all fixed cartesians, so copy forces.
 Force constants in Cartesian coordinates: 
                1             2             3             4             5 
      1  0.100000D+01
      2  0.000000D+00  0.100000D+01
      3  0.000000D+00  0.000000D+00  0.100000D+01
      4  0.000000D+00  0.000000D+00  0.000000D+00  0.100000D+01
      5  0.000000D+00  0.000000D+00  0.000000D+00  0.000000D+00  0.100000D+01
      6  0.000000D+00  0.000000D+00  0.000000D+00  0.000000D+00  0.000000D+00
      7  0.000000D+00  0.000000D+00  0.000000D+00  0.000000D+00  0.000000D+00
      8  0.000000D+00  0.000000D+00  0.000000D+00  0.000000D+00  0.000000D+00
      9  0.000000D+00  0.000000D+00  0.000000D+00  0.000000D+00  0.000000D+00
     10  0.000000D+00  0.000000D+00  0.000000D+00  0.000000D+00  0.000000D+00
     11  0.000000D+00  0.000000D+00  0.000000D+00  0.000000D+00  0.000000D+00
     12  0.000000D+00  0.000000D+00  0.000000D+00  0.000000D+00  0.000000D+00
                6             7             8             9            10 
      6  0.100000D+01
      7  0.000000D+00  0.279943D-01
      8  0.000000D+00  0.576414D-01  0.118686D+00
      9  0.000000D+00  0.316968D-02  0.652649D-02  0.358890D-03
     10  0.000000D+00 -0.279943D-01 -0.576414D-01 -0.316968D-02  0.279943D-01
     11  0.000000D+00 -0.576414D-01 -0.118686D+00 -0.652649D-02  0.576414D-01
     12  0.000000D+00 -0.316968D-02 -0.652649D-02 -0.358890D-03  0.316968D-02
               11            12 
     11  0.118686D+00
     12  0.652649D-02  0.358890D-03
 Leave Link  716 at Mon Aug 28 10:18:19 2023, MaxMem=  1610612736 cpu:               0.3 elap:               0.0
 (Enter /home/sekinelabo/g16/l103.exe)

 GradGradGradGradGradGradGradGradGradGradGradGradGradGradGradGradGradGrad
 Berny optimization.
 Search for a local minimum.
 Step number   1 out of a maximum of    2
 All quantities printed in internal units (Hartrees-Bohrs-Radians)
 Second derivative matrix not updated -- first step.
 The second derivative matrix:
                          X1        Y1        Z1        X2        Y2
           X1           1.00000
           Y1          -0.00000   1.00000
           Z1           0.00000   0.00000   1.00000
           X2           0.00000   0.00000   0.00000   1.00000
           Y2           0.00000   0.00000   0.00000  -0.00000   1.00000
           Z2           0.00000   0.00000   0.00000   0.00000   0.00000
           X3           0.00000   0.00000   0.00000   0.00000   0.00000
           Y3           0.00000   0.00000   0.00000   0.00000   0.00000
           Z3           0.00000   0.00000   0.00000   0.00000   0.00000
           X4           0.00000   0.00000   0.00000   0.00000   0.00000
           Y4           0.00000   0.00000   0.00000   0.00000   0.00000
           Z4           0.00000   0.00000   0.00000   0.00000   0.00000
                          Z2        X3        Y3        Z3        X4
           Z2           1.00000
           X3           0.00000   0.02799
           Y3           0.00000   0.05764   0.11869
           Z3           0.00000   0.00317   0.00653   0.00036
           X4           0.00000  -0.02799  -0.05764  -0.00317   0.02799
           Y4           0.00000  -0.05764  -0.11869  -0.00653   0.05764
           Z4           0.00000  -0.00317  -0.00653  -0.00036   0.00317
                          Y4        Z4
           Y4           0.11869
           Z4           0.00653   0.00036
 ITU=  0
     Eigenvalues ---    0.02705   0.21289   0.29408   0.50000   0.86590
     Eigenvalues ---    1.00000
 Angle between quadratic step and forces=   6.59 degrees.
 Linear search not attempted -- first point.
 B after Tr=     0.000000    0.000000    0.000000
         Rot=    1.000000   -0.000000    0.000000   -0.000000 Ang=   0.00 deg.
 Variable       Old X    -DE/DX   Delta X   Delta X   Delta X     New X
                                 (Linear)    (Quad)   (Total)
    X1        0.00000  -0.00518   0.00000  -0.00504  -0.00504  -0.00504
    Y1        0.00000  -0.00022   0.00000  -0.00020  -0.00020  -0.00020
    Z1        0.00000  -0.00035   0.00000   0.00021   0.00021   0.00021
    X2      -10.09963   0.00497   0.00000   0.00518   0.00518 -10.09445
    Y2       -0.00000   0.00003   0.00000   0.00015   0.00015   0.00015
    Z2       -3.03381   0.00138   0.00000   0.00170   0.00170  -3.03210
    X3       -0.00000   0.01383   0.00000   0.04626   0.04626   0.04626
    Y3       -0.00000   0.02838   0.00000   0.09641   0.09641   0.09641
    Z3        9.99690   0.00100   0.00000   0.00339   0.00339  10.00029
    X4       -1.89551  -0.01362   0.00000  -0.04640  -0.04640  -1.94191
    Y4       -3.90293  -0.02819   0.00000  -0.09635  -0.09635  -3.99928
    Z4        9.78228  -0.00202   0.00000  -0.00531  -0.00531   9.77697
         Item               Value     Threshold  Converged?
 Maximum Force            0.028380     0.000450     NO 
 RMS     Force            0.013023     0.000300     NO 
 Maximum Displacement     0.096405     0.001800     NO 
 RMS     Displacement     0.043747     0.001200     NO 
 Predicted change in Energy=-3.395833D-03
 GradGradGradGradGradGradGradGradGradGradGradGradGradGradGradGradGradGrad

 Leave Link  103 at Mon Aug 28 10:18:19 2023, MaxMem=  1610612736 cpu:               0.1 elap:               0.0
 (Enter /home/sekinelabo/g16/l9999.exe)
 1\1\GINC-SEKINELABO-XA7R-R37\Force\RB3LYP\6-311+G(d)\Na4\SEKINELABO\28
 -Aug-2023\0\\#p B3LYP/6-311+g(d) force\\\0,1\Na,0.,0.,0.\Na,-5.3444945
 82,0.,-1.6054215816\Na,0.,0.,5.2901305003\Na,-1.003060735,-2.065339554
 2,5.1765580591\\Version=ES64L-G16RevB.01\State=1-A\HF=-649.152628\RMSD
 =8.912e-09\RMSF=1.302e-02\Dipole=0.1133661,-0.0794154,0.3111734\Quadru
 pole=4.0160739,0.3895487,-4.4056227,2.4452298,1.1800867,0.3825614\PG=C
 01 [X(Na4)]\\@


 POCKETA-POCKETA
 BARON VON RICHTOFEN
 SLAUGHTERED THE ALLIES WITH
 HARDLY A CARE.
 KILLED EIGHTY-ONE WITH HIS
 BLOOD-COLORED TRIPLANE, THEN
 UN-AEROBATICALLY
 PLUNGED FROM THE AIR.
   -- TONY HOFFMAN
 Job cpu time:       0 days  0 hours  0 minutes 33.8 seconds.
 Elapsed time:       0 days  0 hours  0 minutes  2.3 seconds.
 File lengths (MBytes):  RWF=     10 Int=      0 D2E=      0 Chk=      2 Scr=      1
 Normal termination of Gaussian 16 at Mon Aug 28 10:18:19 2023.
