 Initial command:
 /home/sekinelabo/g16/l1.exe "/home/sekinelabo/g16temp/Gau-20140.inp" -scrdir="/home/sekinelabo/g16temp/"
 Entering Link 1 = /home/sekinelabo/g16/l1.exe PID=     21594.
  
 Copyright (c) 1988-2017, Gaussian, Inc.  All Rights Reserved.
  
 This is part of the Gaussian(R) 16 program.  It is based on
 the Gaussian(R) 09 system (copyright 2009, Gaussian, Inc.),
 the Gaussian(R) 03 system (copyright 2003, Gaussian, Inc.),
 the Gaussian(R) 98 system (copyright 1998, Gaussian, Inc.),
 the Gaussian(R) 94 system (copyright 1995, Gaussian, Inc.),
 the Gaussian 92(TM) system (copyright 1992, Gaussian, Inc.),
 the Gaussian 90(TM) system (copyright 1990, Gaussian, Inc.),
 the Gaussian 88(TM) system (copyright 1988, Gaussian, Inc.),
 the Gaussian 86(TM) system (copyright 1986, Carnegie Mellon
 University), and the Gaussian 82(TM) system (copyright 1983,
 Carnegie Mellon University). Gaussian is a federally registered
 trademark of Gaussian, Inc.
  
 This software contains proprietary and confidential information,
 including trade secrets, belonging to Gaussian, Inc.
  
 This software is provided under written license and may be
 used, copied, transmitted, or stored only in accord with that
 written license.
  
 The following legend is applicable only to US Government
 contracts under FAR:
  
                    RESTRICTED RIGHTS LEGEND
  
 Use, reproduction and disclosure by the US Government is
 subject to restrictions as set forth in subparagraphs (a)
 and (c) of the Commercial Computer Software - Restricted
 Rights clause in FAR 52.227-19.
  
 Gaussian, Inc.
 340 Quinnipiac St., Bldg. 40, Wallingford CT 06492
  
  
 ---------------------------------------------------------------
 Warning -- This program may not be used in any manner that
 competes with the business of Gaussian, Inc. or will provide
 assistance to any competitor of Gaussian, Inc.  The licensee
 of this program is prohibited from giving any competitor of
 Gaussian, Inc. access to this program.  By using this program,
 the user acknowledges that Gaussian, Inc. is engaged in the
 business of creating and licensing software in the field of
 computational chemistry and represents and warrants to the
 licensee that it is not a competitor of Gaussian, Inc. and that
 it will not use this program in any manner prohibited above.
 ---------------------------------------------------------------
  

 Cite this work as:
 Gaussian 16, Revision B.01,
 M. J. Frisch, G. W. Trucks, H. B. Schlegel, G. E. Scuseria, 
 M. A. Robb, J. R. Cheeseman, G. Scalmani, V. Barone, 
 G. A. Petersson, H. Nakatsuji, X. Li, M. Caricato, A. V. Marenich, 
 J. Bloino, B. G. Janesko, R. Gomperts, B. Mennucci, H. P. Hratchian, 
 J. V. Ortiz, A. F. Izmaylov, J. L. Sonnenberg, D. Williams-Young, 
 F. Ding, F. Lipparini, F. Egidi, J. Goings, B. Peng, A. Petrone, 
 T. Henderson, D. Ranasinghe, V. G. Zakrzewski, J. Gao, N. Rega, 
 G. Zheng, W. Liang, M. Hada, M. Ehara, K. Toyota, R. Fukuda, 
 J. Hasegawa, M. Ishida, T. Nakajima, Y. Honda, O. Kitao, H. Nakai, 
 T. Vreven, K. Throssell, J. A. Montgomery, Jr., J. E. Peralta, 
 F. Ogliaro, M. J. Bearpark, J. J. Heyd, E. N. Brothers, K. N. Kudin, 
 V. N. Staroverov, T. A. Keith, R. Kobayashi, J. Normand, 
 K. Raghavachari, A. P. Rendell, J. C. Burant, S. S. Iyengar, 
 J. Tomasi, M. Cossi, J. M. Millam, M. Klene, C. Adamo, R. Cammi, 
 J. W. Ochterski, R. L. Martin, K. Morokuma, O. Farkas, 
 J. B. Foresman, and D. J. Fox, Gaussian, Inc., Wallingford CT, 2016.
 
 ******************************************
 Gaussian 16:  ES64L-G16RevB.01 20-Dec-2017
                23-Aug-2023 
 ******************************************
 %NProcShared=16
 Will use up to   16 processors via shared memory.
 %mem=12GB
 %Chk=checkpoint.chk
 -------------------------
 #p B3LYP/6-311+g(d) force
 -------------------------
 1/10=7,30=1,38=1/1,3;
 2/12=2,17=6,18=5,40=1/2;
 3/5=4,6=6,7=11,11=2,25=1,30=1,71=1,74=-5/1,2,3;
 4//1;
 5/5=2,38=5/2;
 6/7=2,8=2,9=2,10=2,28=1/1;
 7/29=1/1,2,3,16;
 1/10=7,30=1/3;
 99//99;
 Leave Link    1 at Wed Aug 23 10:07:53 2023, MaxMem=  1610612736 cpu:               0.2 elap:               0.0
 (Enter /home/sekinelabo/g16/l101.exe)


 Symbolic Z-matrix:
 Charge =  0 Multiplicity = 1
 Na                    0.        0.        0. 
 Na                   -4.79075   0.       -0.75308 
 Na                    0.        0.        3.7913 
 Na                    0.5197   -2.25995   7.20387 
 
 ITRead=  0  0  0  0
 MicOpt= -1 -1 -1 -1
 NAtoms=      4 NQM=        4 NQMF=       0 NMMI=      0 NMMIF=      0
                NMic=       0 NMicF=      0.
                    Isotopes and Nuclear Properties:
 (Nuclear quadrupole moments (NQMom) in fm**2, nuclear magnetic moments (NMagM)
  in nuclear magnetons)

  Atom         1           2           3           4
 IAtWgt=          23          23          23          23
 AtmWgt=  22.9897697  22.9897697  22.9897697  22.9897697
 NucSpn=           3           3           3           3
 AtZEff=  -0.0000000  -0.0000000  -0.0000000  -0.0000000
 NQMom=   10.4000000  10.4000000  10.4000000  10.4000000
 NMagM=    2.2175200   2.2175200   2.2175200   2.2175200
 AtZNuc=  11.0000000  11.0000000  11.0000000  11.0000000
 Leave Link  101 at Wed Aug 23 10:07:53 2023, MaxMem=  1610612736 cpu:               1.6 elap:               0.1
 (Enter /home/sekinelabo/g16/l103.exe)

 GradGradGradGradGradGradGradGradGradGradGradGradGradGradGradGradGradGrad
 Berny optimization.
 Initialization pass.
 Trust Radius=3.00D-01 FncErr=1.00D-07 GrdErr=1.00D-07 EigMax=2.50D+02 EigMin=1.00D-04
 Number of steps in this run=      2 maximum allowed number of steps=      2.
 GradGradGradGradGradGradGradGradGradGradGradGradGradGradGradGradGradGrad

 Leave Link  103 at Wed Aug 23 10:07:53 2023, MaxMem=  1610612736 cpu:               0.1 elap:               0.0
 (Enter /home/sekinelabo/g16/l202.exe)
                          Input orientation:                          
 ---------------------------------------------------------------------
 Center     Atomic      Atomic             Coordinates (Angstroms)
 Number     Number       Type             X           Y           Z
 ---------------------------------------------------------------------
      1         11           0        0.000000    0.000000    0.000000
      2         11           0       -4.790751    0.000000   -0.753082
      3         11           0        0.000000    0.000000    3.791298
      4         11           0        0.519697   -2.259951    7.203871
 ---------------------------------------------------------------------
                    Distance matrix (angstroms):
                    1          2          3          4
     1  Na   0.000000
     2  Na   4.849580   0.000000
     3  Na   3.791298   6.603232   0.000000
     4  Na   7.567907   9.829615   4.125908   0.000000
 Stoichiometry    Na4
 Framework group  C1[X(Na4)]
 Deg. of freedom     6
 Full point group                 C1      NOp   1
 Largest Abelian subgroup         C1      NOp   1
 Largest concise Abelian subgroup C1      NOp   1
                         Standard orientation:                         
 ---------------------------------------------------------------------
 Center     Atomic      Atomic             Coordinates (Angstroms)
 Number     Number       Type             X           Y           Z
 ---------------------------------------------------------------------
      1         11           0       -1.805262    2.146317   -0.387238
      2         11           0       -4.712785   -1.717319   -0.017028
      3         11           0        1.434792    0.558586    0.776849
      4         11           0        5.083255   -0.987584   -0.372583
 ---------------------------------------------------------------------
 Rotational constants (GHZ):           2.2579425           0.4051380           0.3533605
 Leave Link  202 at Wed Aug 23 10:07:53 2023, MaxMem=  1610612736 cpu:               0.0 elap:               0.0
 (Enter /home/sekinelabo/g16/l301.exe)
 Standard basis: 6-311+G(d) (5D, 7F)
 Ernie: Thresh=  0.10000D-02 Tol=  0.10000D-05 Strict=F.
 There are   124 symmetry adapted cartesian basis functions of A   symmetry.
 There are   120 symmetry adapted basis functions of A   symmetry.
   120 basis functions,   200 primitive gaussians,   124 cartesian basis functions
    22 alpha electrons       22 beta electrons
       nuclear repulsion energy        70.2828583027 Hartrees.
 IExCor=  402 DFT=T Ex+Corr=B3LYP ExCW=0 ScaHFX=  0.200000
 ScaDFX=  0.800000  0.720000  1.000000  0.810000 ScalE2=  1.000000  1.000000
 IRadAn=      5 IRanWt=     -1 IRanGd=            0 ICorTp=0 IEmpDi=  4
 NAtoms=    4 NActive=    4 NUniq=    4 SFac= 1.00D+00 NAtFMM=   60 NAOKFM=F Big=F
 Integral buffers will be    131072 words long.
 Raffenetti 2 integral format.
 Two-electron integral symmetry is turned on.
 Leave Link  301 at Wed Aug 23 10:07:53 2023, MaxMem=  1610612736 cpu:               0.3 elap:               0.0
 (Enter /home/sekinelabo/g16/l302.exe)
 NPDir=0 NMtPBC=     1 NCelOv=     1 NCel=       1 NClECP=     1 NCelD=      1
         NCelK=      1 NCelE2=     1 NClLst=     1 CellRange=     0.0.
 One-electron integrals computed using PRISM.
 One-electron integral symmetry used in STVInt
 NBasis=   120 RedAO= T EigKep=  1.69D-04  NBF=   120
 NBsUse=   120 1.00D-06 EigRej= -1.00D+00 NBFU=   120
 Precomputing XC quadrature grid using
 IXCGrd= 4 IRadAn=           5 IRanWt=          -1 IRanGd=           0 AccXCQ= 0.00D+00.
 Generated NRdTot=       0 NPtTot=           0 NUsed=           0 NTot=          32
 NSgBfM=   113   113   113   113   113 MxSgAt=     4 MxSgA2=     4.
 Leave Link  302 at Wed Aug 23 10:07:54 2023, MaxMem=  1610612736 cpu:               1.3 elap:               0.1
 (Enter /home/sekinelabo/g16/l303.exe)
 DipDrv:  MaxL=1.
 Leave Link  303 at Wed Aug 23 10:07:54 2023, MaxMem=  1610612736 cpu:               0.3 elap:               0.0
 (Enter /home/sekinelabo/g16/l401.exe)
 ExpMin= 7.60D-03 ExpMax= 3.62D+04 ExpMxC= 1.21D+03 IAcc=3 IRadAn=         5 AccDes= 0.00D+00
 Harris functional with IExCor=  402 and IRadAn=       5 diagonalized for initial guess.
 HarFok:  IExCor=  402 AccDes= 0.00D+00 IRadAn=         5 IDoV= 1 UseB2=F ITyADJ=14
 ICtDFT=  3500011 ScaDFX=  1.000000  1.000000  1.000000  1.000000
 FoFCou: FMM=F IPFlag=           0 FMFlag=      100000 FMFlg1=           0
         NFxFlg=           0 DoJE=T BraDBF=F KetDBF=T FulRan=T
         wScrn=  0.000000 ICntrl=       500 IOpCl=  0 I1Cent=   200000004 NGrid=           0
         NMat0=    1 NMatS0=      1 NMatT0=    0 NMatD0=    1 NMtDS0=    0 NMtDT0=    0
 Petite list used in FoFCou.
 Harris En= -649.049967343192    
 JPrj=0 DoOrth=F DoCkMO=F.
 Leave Link  401 at Wed Aug 23 10:07:54 2023, MaxMem=  1610612736 cpu:               1.9 elap:               0.1
 (Enter /home/sekinelabo/g16/l502.exe)
 Keep R1 ints in memory in canonical form, NReq=41581754.
 FoFCou: FMM=F IPFlag=           0 FMFlag=           0 FMFlg1=           0
         NFxFlg=           0 DoJE=F BraDBF=F KetDBF=F FulRan=T
         wScrn=  0.000000 ICntrl=       600 IOpCl=  0 I1Cent=           0 NGrid=           0
         NMat0=    1 NMatS0=   7260 NMatT0=    0 NMatD0=    1 NMtDS0=    0 NMtDT0=    0
 Symmetry not used in FoFCou.
 Two-electron integral symmetry not used.
 Closed shell SCF:
 Using DIIS extrapolation, IDIIS=  1040.
 NGot=  1610612736 LenX=  1584221388 LenY=  1584205571
 Requested convergence on RMS density matrix=1.00D-08 within 128 cycles.
 Requested convergence on MAX density matrix=1.00D-06.
 Requested convergence on             energy=1.00D-06.
 No special actions if energy rises.

 Cycle   1  Pass 1  IDiag  1:
 E= -649.154681336311    
 DIIS: error= 1.26D-02 at cycle   1 NSaved=   1.
 NSaved= 1 IEnMin= 1 EnMin= -649.154681336311     IErMin= 1 ErrMin= 1.26D-02
 ErrMax= 1.26D-02  0.00D+00 EMaxC= 1.00D-01 BMatC= 2.75D-02 BMatP= 2.75D-02
 IDIUse=3 WtCom= 8.74D-01 WtEn= 1.26D-01
 Coeff-Com:  0.100D+01
 Coeff-En:   0.100D+01
 Coeff:      0.100D+01
 Gap=     0.012 Goal=   None    Shift=    0.000
 GapD=    0.012 DampG=0.250 DampE=0.500 DampFc=0.2500 IDamp=-1.
 Damping current iteration by 2.50D-01
 RMSDP=7.11D-03 MaxDP=4.55D-01              OVMax= 5.01D-01

 Cycle   2  Pass 1  IDiag  1:
 E= -649.159464715745     Delta-E=       -0.004783379434 Rises=F Damp=T
 DIIS: error= 9.05D-03 at cycle   2 NSaved=   2.
 NSaved= 2 IEnMin= 2 EnMin= -649.159464715745     IErMin= 2 ErrMin= 9.05D-03
 ErrMax= 9.05D-03  0.00D+00 EMaxC= 1.00D-01 BMatC= 1.02D-02 BMatP= 2.75D-02
 IDIUse=3 WtCom= 9.10D-01 WtEn= 9.05D-02
 Coeff-Com: -0.994D+00 0.199D+01
 Coeff-En:   0.263D+00 0.737D+00
 Coeff:     -0.881D+00 0.188D+01
 Gap=     0.013 Goal=   None    Shift=    0.000
 RMSDP=5.79D-03 MaxDP=3.28D-01 DE=-4.78D-03 OVMax= 7.43D-01

 Cycle   3  Pass 1  IDiag  1:
 E= -649.053073011011     Delta-E=        0.106391704734 Rises=F Damp=F
 DIIS: error= 9.82D-03 at cycle   3 NSaved=   3.
 NSaved= 3 IEnMin= 2 EnMin= -649.159464715745     IErMin= 2 ErrMin= 9.05D-03
 ErrMax= 9.82D-03  0.00D+00 EMaxC= 1.00D-01 BMatC= 1.01D-02 BMatP= 1.02D-02
 IDIUse=3 WtCom= 9.02D-01 WtEn= 9.82D-02
 Rare condition: small coef for last iteration:  0.000D+00
 Coeff-Com: -0.705D+00 0.134D+01 0.363D+00
 Coeff-En:   0.252D+00 0.743D+00 0.574D-02
 Coeff:     -0.705D+00 0.134D+01 0.363D+00
 Gap=     0.035 Goal=   None    Shift=    0.000
 RMSDP=7.55D-03 MaxDP=4.50D-01 DE= 1.06D-01 OVMax= 7.26D-01

 Cycle   4  Pass 1  IDiag  1:
 E= -649.139826143002     Delta-E=       -0.086753131991 Rises=F Damp=F
 DIIS: error= 9.49D-03 at cycle   4 NSaved=   4.
 NSaved= 4 IEnMin= 2 EnMin= -649.159464715745     IErMin= 2 ErrMin= 9.05D-03
 ErrMax= 9.49D-03  0.00D+00 EMaxC= 1.00D-01 BMatC= 3.83D-03 BMatP= 1.01D-02
 IDIUse=3 WtCom= 9.05D-01 WtEn= 9.49D-02
 EnCoef did   100 forward-backward iterations
 Coeff-Com: -0.112D+00 0.296D+00 0.319D+00 0.496D+00
 Coeff-En:   0.606D+00 0.000D+00 0.633D-02 0.388D+00
 Coeff:     -0.435D-01 0.268D+00 0.289D+00 0.486D+00
 Gap=     0.019 Goal=   None    Shift=    0.000
 RMSDP=3.26D-03 MaxDP=1.94D-01 DE=-8.68D-02 OVMax= 3.66D-01

 Cycle   5  Pass 1  IDiag  1:
 E= -649.173640161804     Delta-E=       -0.033814018802 Rises=F Damp=F
 DIIS: error= 1.69D-03 at cycle   5 NSaved=   5.
 NSaved= 5 IEnMin= 5 EnMin= -649.173640161804     IErMin= 5 ErrMin= 1.69D-03
 ErrMax= 1.69D-03  0.00D+00 EMaxC= 1.00D-01 BMatC= 2.50D-04 BMatP= 3.83D-03
 IDIUse=3 WtCom= 9.83D-01 WtEn= 1.69D-02
 Coeff-Com:  0.102D+00-0.117D+00-0.147D-01 0.174D+00 0.856D+00
 Coeff-En:   0.000D+00 0.000D+00 0.000D+00 0.721D-01 0.928D+00
 Coeff:      0.999D-01-0.115D+00-0.144D-01 0.172D+00 0.857D+00
 Gap=     0.027 Goal=   None    Shift=    0.000
 RMSDP=9.97D-04 MaxDP=3.78D-02 DE=-3.38D-02 OVMax= 7.72D-02

 Cycle   6  Pass 1  IDiag  1:
 E= -649.174847366891     Delta-E=       -0.001207205087 Rises=F Damp=F
 DIIS: error= 4.96D-04 at cycle   6 NSaved=   6.
 NSaved= 6 IEnMin= 6 EnMin= -649.174847366891     IErMin= 6 ErrMin= 4.96D-04
 ErrMax= 4.96D-04  0.00D+00 EMaxC= 1.00D-01 BMatC= 4.29D-05 BMatP= 2.50D-04
 IDIUse=3 WtCom= 9.95D-01 WtEn= 4.96D-03
 Coeff-Com:  0.419D-01-0.535D-01-0.213D-01 0.258D-01 0.339D+00 0.669D+00
 Coeff-En:   0.000D+00 0.000D+00 0.000D+00 0.000D+00 0.138D+00 0.862D+00
 Coeff:      0.417D-01-0.533D-01-0.212D-01 0.257D-01 0.338D+00 0.670D+00
 Gap=     0.027 Goal=   None    Shift=    0.000
 RMSDP=5.01D-04 MaxDP=3.06D-02 DE=-1.21D-03 OVMax= 4.53D-02

 Cycle   7  Pass 1  IDiag  1:
 E= -649.174844922194     Delta-E=        0.000002444697 Rises=F Damp=F
 DIIS: error= 5.64D-04 at cycle   7 NSaved=   7.
 NSaved= 7 IEnMin= 6 EnMin= -649.174847366891     IErMin= 6 ErrMin= 4.96D-04
 ErrMax= 5.64D-04  0.00D+00 EMaxC= 1.00D-01 BMatC= 3.26D-05 BMatP= 4.29D-05
 IDIUse=3 WtCom= 9.95D-01 WtEn= 4.96D-03
 Coeff-Com:  0.192D-02-0.137D-02-0.139D-01 0.162D-01 0.105D+00 0.417D+00
 Coeff-Com:  0.475D+00
 Coeff-En:   0.000D+00 0.000D+00 0.000D+00 0.000D+00 0.000D+00 0.502D+00
 Coeff-En:   0.498D+00
 Coeff:      0.191D-02-0.136D-02-0.139D-01 0.161D-01 0.105D+00 0.417D+00
 Coeff:      0.475D+00
 Gap=     0.028 Goal=   None    Shift=    0.000
 RMSDP=1.86D-04 MaxDP=1.06D-02 DE= 2.44D-06 OVMax= 1.84D-02

 Cycle   8  Pass 1  IDiag  1:
 E= -649.175004723985     Delta-E=       -0.000159801791 Rises=F Damp=F
 DIIS: error= 5.04D-04 at cycle   8 NSaved=   8.
 NSaved= 8 IEnMin= 8 EnMin= -649.175004723985     IErMin= 6 ErrMin= 4.96D-04
 ErrMax= 5.04D-04  0.00D+00 EMaxC= 1.00D-01 BMatC= 9.03D-06 BMatP= 3.26D-05
 IDIUse=3 WtCom= 9.95D-01 WtEn= 4.96D-03
 EnCoef did     6 forward-backward iterations
 Coeff-Com: -0.111D-01 0.152D-01-0.808D-02 0.158D-01-0.227D-02 0.210D+00
 Coeff-Com:  0.300D+00 0.480D+00
 Coeff-En:   0.000D+00 0.000D+00 0.000D+00 0.000D+00 0.000D+00 0.261D+00
 Coeff-En:   0.368D-01 0.702D+00
 Coeff:     -0.110D-01 0.151D-01-0.804D-02 0.158D-01-0.226D-02 0.210D+00
 Coeff:      0.299D+00 0.481D+00
 Gap=     0.027 Goal=   None    Shift=    0.000
 RMSDP=9.58D-05 MaxDP=5.16D-03 DE=-1.60D-04 OVMax= 7.11D-03

 Cycle   9  Pass 1  IDiag  1:
 E= -649.175051839128     Delta-E=       -0.000047115144 Rises=F Damp=F
 DIIS: error= 3.14D-04 at cycle   9 NSaved=   9.
 NSaved= 9 IEnMin= 9 EnMin= -649.175051839128     IErMin= 9 ErrMin= 3.14D-04
 ErrMax= 3.14D-04  0.00D+00 EMaxC= 1.00D-01 BMatC= 3.38D-06 BMatP= 9.03D-06
 IDIUse=3 WtCom= 9.97D-01 WtEn= 3.14D-03
 Coeff-Com: -0.165D-01 0.223D-01-0.977D-03 0.110D-01-0.655D-01-0.242D-01
 Coeff-Com: -0.661D-01 0.182D+00 0.958D+00
 Coeff-En:   0.000D+00 0.000D+00 0.000D+00 0.000D+00 0.000D+00 0.118D+00
 Coeff-En:   0.000D+00 0.000D+00 0.882D+00
 Coeff:     -0.164D-01 0.222D-01-0.974D-03 0.109D-01-0.653D-01-0.238D-01
 Coeff:     -0.659D-01 0.181D+00 0.958D+00
 Gap=     0.027 Goal=   None    Shift=    0.000
 RMSDP=7.56D-05 MaxDP=4.33D-03 DE=-4.71D-05 OVMax= 8.73D-03

 Cycle  10  Pass 1  IDiag  1:
 E= -649.175084230545     Delta-E=       -0.000032391417 Rises=F Damp=F
 DIIS: error= 4.31D-05 at cycle  10 NSaved=  10.
 NSaved=10 IEnMin=10 EnMin= -649.175084230545     IErMin=10 ErrMin= 4.31D-05
 ErrMax= 4.31D-05  0.00D+00 EMaxC= 1.00D-01 BMatC= 7.88D-08 BMatP= 3.38D-06
 IDIUse=1 WtCom= 1.00D+00 WtEn= 0.00D+00
 Coeff-Com: -0.440D-02 0.593D-02 0.458D-04 0.190D-02-0.168D-01-0.113D-01
 Coeff-Com: -0.281D-01 0.280D-01 0.125D+00 0.899D+00
 Coeff:     -0.440D-02 0.593D-02 0.458D-04 0.190D-02-0.168D-01-0.113D-01
 Coeff:     -0.281D-01 0.280D-01 0.125D+00 0.899D+00
 Gap=     0.027 Goal=   None    Shift=    0.000
 RMSDP=1.06D-05 MaxDP=3.70D-04 DE=-3.24D-05 OVMax= 7.62D-04

 Cycle  11  Pass 1  IDiag  1:
 E= -649.175084684979     Delta-E=       -0.000000454433 Rises=F Damp=F
 DIIS: error= 1.73D-05 at cycle  11 NSaved=  11.
 NSaved=11 IEnMin=11 EnMin= -649.175084684979     IErMin=11 ErrMin= 1.73D-05
 ErrMax= 1.73D-05  0.00D+00 EMaxC= 1.00D-01 BMatC= 1.26D-08 BMatP= 7.88D-08
 IDIUse=1 WtCom= 1.00D+00 WtEn= 0.00D+00
 Coeff-Com:  0.843D-04-0.107D-03 0.132D-03-0.121D-03 0.112D-02 0.331D-02
 Coeff-Com: -0.358D-02-0.972D-02-0.658D-01 0.206D+00 0.869D+00
 Coeff:      0.843D-04-0.107D-03 0.132D-03-0.121D-03 0.112D-02 0.331D-02
 Coeff:     -0.358D-02-0.972D-02-0.658D-01 0.206D+00 0.869D+00
 Gap=     0.027 Goal=   None    Shift=    0.000
 RMSDP=7.66D-06 MaxDP=4.73D-04 DE=-4.54D-07 OVMax= 8.47D-04

 Cycle  12  Pass 1  IDiag  1:
 E= -649.175084798395     Delta-E=       -0.000000113416 Rises=F Damp=F
 DIIS: error= 6.12D-06 at cycle  12 NSaved=  12.
 NSaved=12 IEnMin=12 EnMin= -649.175084798395     IErMin=12 ErrMin= 6.12D-06
 ErrMax= 6.12D-06  0.00D+00 EMaxC= 1.00D-01 BMatC= 1.72D-09 BMatP= 1.26D-08
 IDIUse=1 WtCom= 1.00D+00 WtEn= 0.00D+00
 Coeff-Com:  0.199D-03-0.263D-03 0.204D-04-0.152D-03 0.912D-03 0.145D-02
 Coeff-Com:  0.216D-02-0.249D-03-0.885D-02-0.103D-02 0.184D+00 0.822D+00
 Coeff:      0.199D-03-0.263D-03 0.204D-04-0.152D-03 0.912D-03 0.145D-02
 Coeff:      0.216D-02-0.249D-03-0.885D-02-0.103D-02 0.184D+00 0.822D+00
 Gap=     0.027 Goal=   None    Shift=    0.000
 RMSDP=1.50D-06 MaxDP=7.80D-05 DE=-1.13D-07 OVMax= 1.41D-04

 Cycle  13  Pass 1  IDiag  1:
 E= -649.175084812222     Delta-E=       -0.000000013827 Rises=F Damp=F
 DIIS: error= 2.51D-06 at cycle  13 NSaved=  13.
 NSaved=13 IEnMin=13 EnMin= -649.175084812222     IErMin=13 ErrMin= 2.51D-06
 ErrMax= 2.51D-06  0.00D+00 EMaxC= 1.00D-01 BMatC= 1.91D-10 BMatP= 1.72D-09
 IDIUse=1 WtCom= 1.00D+00 WtEn= 0.00D+00
 Coeff-Com:  0.111D-04-0.134D-04-0.737D-06-0.496D-04 0.121D-05 0.126D-04
 Coeff-Com:  0.474D-03 0.126D-02 0.835D-02-0.173D-01-0.464D-02 0.187D+00
 Coeff-Com:  0.825D+00
 Coeff:      0.111D-04-0.134D-04-0.737D-06-0.496D-04 0.121D-05 0.126D-04
 Coeff:      0.474D-03 0.126D-02 0.835D-02-0.173D-01-0.464D-02 0.187D+00
 Coeff:      0.825D+00
 Gap=     0.027 Goal=   None    Shift=    0.000
 RMSDP=6.64D-07 MaxDP=3.56D-05 DE=-1.38D-08 OVMax= 7.59D-05

 Cycle  14  Pass 1  IDiag  1:
 E= -649.175084814176     Delta-E=       -0.000000001954 Rises=F Damp=F
 DIIS: error= 8.08D-08 at cycle  14 NSaved=  14.
 NSaved=14 IEnMin=14 EnMin= -649.175084814176     IErMin=14 ErrMin= 8.08D-08
 ErrMax= 8.08D-08  0.00D+00 EMaxC= 1.00D-01 BMatC= 9.26D-13 BMatP= 1.91D-10
 IDIUse=1 WtCom= 1.00D+00 WtEn= 0.00D+00
 Coeff-Com: -0.105D-04 0.144D-04 0.441D-06-0.957D-05-0.519D-04-0.801D-04
 Coeff-Com:  0.480D-04 0.179D-03 0.173D-02-0.301D-02-0.736D-02-0.102D-01
 Coeff-Com:  0.150D+00 0.869D+00
 Coeff:     -0.105D-04 0.144D-04 0.441D-06-0.957D-05-0.519D-04-0.801D-04
 Coeff:      0.480D-04 0.179D-03 0.173D-02-0.301D-02-0.736D-02-0.102D-01
 Coeff:      0.150D+00 0.869D+00
 Gap=     0.027 Goal=   None    Shift=    0.000
 RMSDP=5.98D-08 MaxDP=2.63D-06 DE=-1.95D-09 OVMax= 4.94D-06

 Cycle  15  Pass 1  IDiag  1:
 E= -649.175084814185     Delta-E=       -0.000000000010 Rises=F Damp=F
 DIIS: error= 1.49D-08 at cycle  15 NSaved=  15.
 NSaved=15 IEnMin=15 EnMin= -649.175084814185     IErMin=15 ErrMin= 1.49D-08
 ErrMax= 1.49D-08  0.00D+00 EMaxC= 1.00D-01 BMatC= 3.42D-14 BMatP= 9.26D-13
 IDIUse=1 WtCom= 1.00D+00 WtEn= 0.00D+00
 Coeff-Com: -0.136D-05 0.180D-05-0.761D-07-0.721D-06-0.546D-05-0.211D-07
 Coeff-Com:  0.336D-04-0.301D-04-0.263D-03-0.186D-03-0.135D-03-0.770D-02
 Coeff-Com: -0.175D-01 0.865D-01 0.939D+00
 Coeff:     -0.136D-05 0.180D-05-0.761D-07-0.721D-06-0.546D-05-0.211D-07
 Coeff:      0.336D-04-0.301D-04-0.263D-03-0.186D-03-0.135D-03-0.770D-02
 Coeff:     -0.175D-01 0.865D-01 0.939D+00
 Gap=     0.027 Goal=   None    Shift=    0.000
 RMSDP=1.64D-08 MaxDP=3.61D-07 DE=-9.78D-12 OVMax= 7.95D-07

 Cycle  16  Pass 1  IDiag  1:
 E= -649.175084814178     Delta-E=        0.000000000007 Rises=F Damp=F
 DIIS: error= 1.16D-08 at cycle  16 NSaved=  16.
 NSaved=16 IEnMin=15 EnMin= -649.175084814185     IErMin=16 ErrMin= 1.16D-08
 ErrMax= 1.16D-08  0.00D+00 EMaxC= 1.00D-01 BMatC= 6.58D-15 BMatP= 3.42D-14
 IDIUse=1 WtCom= 1.00D+00 WtEn= 0.00D+00
 Large coefficients: NSaved= 16 BigCof=    0.00 CofMax=   10.00 Det=-9.18D-15
 Inversion failed.  Reducing to 15 matrices.
 Coeff-Com: -0.331D-06 0.464D-06 0.159D-07-0.217D-05 0.250D-06 0.818D-05
 Coeff-Com: -0.203D-04-0.757D-04-0.549D-04 0.235D-03-0.329D-03-0.700D-02
 Coeff-Com: -0.222D-01 0.191D+00 0.838D+00
 Coeff:     -0.331D-06 0.464D-06 0.159D-07-0.217D-05 0.250D-06 0.818D-05
 Coeff:     -0.203D-04-0.757D-04-0.549D-04 0.235D-03-0.329D-03-0.700D-02
 Coeff:     -0.222D-01 0.191D+00 0.838D+00
 Gap=     0.027 Goal=   None    Shift=    0.000
 RMSDP=4.90D-09 MaxDP=1.95D-07 DE= 7.28D-12 OVMax= 3.75D-07

 SCF Done:  E(RB3LYP) =  -649.175084814     A.U. after   16 cycles
            NFock= 16  Conv=0.49D-08     -V/T= 2.0030
 KE= 6.472088444017D+02 PE=-1.699416603920D+03 EE= 3.327498164017D+02
 Leave Link  502 at Wed Aug 23 10:07:55 2023, MaxMem=  1610612736 cpu:              21.8 elap:               1.6
 (Enter /home/sekinelabo/g16/l601.exe)
 Copying SCF densities to generalized density rwf, IOpCl= 0 IROHF=0.

 **********************************************************************

            Population analysis using the SCF Density.

 **********************************************************************

 Orbital symmetries:
       Occupied  (A) (A) (A) (A) (A) (A) (A) (A) (A) (A) (A) (A)
                 (A) (A) (A) (A) (A) (A) (A) (A) (A) (A)
       Virtual   (A) (A) (A) (A) (A) (A) (A) (A) (A) (A) (A) (A)
                 (A) (A) (A) (A) (A) (A) (A) (A) (A) (A) (A) (A)
                 (A) (A) (A) (A) (A) (A) (A) (A) (A) (A) (A) (A)
                 (A) (A) (A) (A) (A) (A) (A) (A) (A) (A) (A) (A)
                 (A) (A) (A) (A) (A) (A) (A) (A) (A) (A) (A) (A)
                 (A) (A) (A) (A) (A) (A) (A) (A) (A) (A) (A) (A)
                 (A) (A) (A) (A) (A) (A) (A) (A) (A) (A) (A) (A)
                 (A) (A) (A) (A) (A) (A) (A) (A) (A) (A) (A) (A)
                 (A) (A)
 The electronic state is 1-A.
 Alpha  occ. eigenvalues --  -38.46443 -38.45790 -38.45201 -38.44779  -2.22116
 Alpha  occ. eigenvalues --   -2.21489  -2.20898  -2.20487  -1.15794  -1.15794
 Alpha  occ. eigenvalues --   -1.15752  -1.15173  -1.15150  -1.15127  -1.14577
 Alpha  occ. eigenvalues --   -1.14576  -1.14526  -1.14183  -1.14179  -1.14091
 Alpha  occ. eigenvalues --   -0.13407  -0.11339
 Alpha virt. eigenvalues --   -0.08597  -0.05641  -0.02736  -0.02713  -0.02171
 Alpha virt. eigenvalues --   -0.01569  -0.01482  -0.00993  -0.00521  -0.00078
 Alpha virt. eigenvalues --    0.00071   0.00728   0.00812   0.00950   0.01198
 Alpha virt. eigenvalues --    0.01322   0.01560   0.01687   0.01824   0.01865
 Alpha virt. eigenvalues --    0.02022   0.02102   0.02224   0.02466   0.02586
 Alpha virt. eigenvalues --    0.03089   0.03332   0.03479   0.03752   0.04698
 Alpha virt. eigenvalues --    0.06825   0.07314   0.07687   0.07931   0.08010
 Alpha virt. eigenvalues --    0.08169   0.08294   0.08357   0.08834   0.09451
 Alpha virt. eigenvalues --    0.09897   0.10269   0.10958   0.11381   0.13012
 Alpha virt. eigenvalues --    0.14150   0.30255   0.30400   0.30978   0.32729
 Alpha virt. eigenvalues --    0.33321   0.33946   0.34252   0.34283   0.34334
 Alpha virt. eigenvalues --    0.34889   0.35110   0.35175   0.35599   0.37056
 Alpha virt. eigenvalues --    0.37317   0.37560   0.38192   0.40781   0.41484
 Alpha virt. eigenvalues --    0.42289   0.42772   0.43262   0.43771   0.43921
 Alpha virt. eigenvalues --    0.44727   0.44900   0.45784   0.46002   0.47550
 Alpha virt. eigenvalues --    0.48796   0.50198   0.52913   1.99501   2.01488
 Alpha virt. eigenvalues --    2.05575   2.09025   4.42291   4.42510   4.43259
 Alpha virt. eigenvalues --    4.43404   4.43693   4.43783   4.43994   4.44672
 Alpha virt. eigenvalues --    4.44879   4.45033   4.45680   4.48798  96.18234
 Alpha virt. eigenvalues --   96.20635  96.25482  96.29366
          Condensed to atoms (all electrons):
               1          2          3          4
     1  Na  10.724422   0.181145   0.088246  -0.089078
     2  Na   0.181145  10.890896  -0.090845  -0.031192
     3  Na   0.088246  -0.090845  11.014821   0.230599
     4  Na  -0.089078  -0.031192   0.230599  10.792113
 Mulliken charges:
               1
     1  Na   0.095266
     2  Na   0.049996
     3  Na  -0.242820
     4  Na   0.097558
 Sum of Mulliken charges =  -0.00000
 Mulliken charges with hydrogens summed into heavy atoms:
               1
     1  Na   0.095266
     2  Na   0.049996
     3  Na  -0.242820
     4  Na   0.097558
 Electronic spatial extent (au):  <R**2>=           2561.7329
 Charge=             -0.0000 electrons
 Dipole moment (field-independent basis, Debye):
    X=             -0.8411    Y=             -0.2609    Z=             -0.1991  Tot=              0.9028
 Quadrupole moment (field-independent basis, Debye-Ang):
   XX=            -31.7359   YY=            -35.6217   ZZ=            -44.1889
   XY=              0.1300   XZ=             -1.7020   YZ=             -0.7645
 Traceless Quadrupole moment (field-independent basis, Debye-Ang):
   XX=              5.4463   YY=              1.5604   ZZ=             -7.0067
   XY=              0.1300   XZ=             -1.7020   YZ=             -0.7645
 Octapole moment (field-independent basis, Debye-Ang**2):
  XXX=             28.1860  YYY=             10.6592  ZZZ=              0.7338  XYY=            -24.6771
  XXY=            -53.0437  XXZ=            -15.4686  XZZ=              1.3926  YZZ=              2.1103
  YYZ=             -4.9364  XYZ=              7.4895
 Hexadecapole moment (field-independent basis, Debye-Ang**3):
 XXXX=          -3018.0697 YYYY=           -651.4774 ZZZZ=           -248.3372 XXXY=             30.6131
 XXXZ=           -105.2912 YYYX=            -10.8115 YYYZ=            -13.2889 ZZZX=             -7.0736
 ZZZY=             -3.3538 XXYY=           -621.9101 XXZZ=           -671.9565 YYZZ=           -157.0093
 XXYZ=             10.8588 YYXZ=              1.7873 ZZXY=             -2.0734
 N-N= 7.028285830268D+01 E-N=-1.699416604556D+03  KE= 6.472088444017D+02
 No NMR shielding tensors so no spin-rotation constants.
 Leave Link  601 at Wed Aug 23 10:07:55 2023, MaxMem=  1610612736 cpu:               0.9 elap:               0.1
 (Enter /home/sekinelabo/g16/l701.exe)
 ... and contract with generalized density number  0.
 Compute integral first derivatives.
 Leave Link  701 at Wed Aug 23 10:07:55 2023, MaxMem=  1610612736 cpu:               1.2 elap:               0.1
 (Enter /home/sekinelabo/g16/l702.exe)
 L702 exits ... SP integral derivatives will be done elsewhere.
 Leave Link  702 at Wed Aug 23 10:07:55 2023, MaxMem=  1610612736 cpu:               0.3 elap:               0.0
 (Enter /home/sekinelabo/g16/l703.exe)
 Integral derivatives from FoFJK, PRISM(SPDF).
 Compute integral first derivatives, UseDBF=F ICtDFT=           0.
 Calling FoFJK, ICntrl=      2127 FMM=F ISym2X=0 I1Cent= 0 IOpClX= 0 NMat=1 NMatS=1 NMatT=0.
 FoFJK:  IHMeth= 1 ICntrl=    2127 DoSepK=F KAlg= 0 I1Cent=           0 FoldK=F
 IRaf=         0 NMat=       1 IRICut=       1 DoRegI=T DoRafI=F ISym2E= 0 IDoP0=0 IntGTp=1.
 FoFCou: FMM=F IPFlag=           0 FMFlag=      100000 FMFlg1=         800
         NFxFlg=           0 DoJE=F BraDBF=F KetDBF=F FulRan=T
         wScrn=  0.000000 ICntrl=      2127 IOpCl=  0 I1Cent=           0 NGrid=           0
         NMat0=    1 NMatS0=      1 NMatT0=    0 NMatD0=    1 NMtDS0=    0 NMtDT0=    0
 Symmetry not used in FoFCou.
 Leave Link  703 at Wed Aug 23 10:07:56 2023, MaxMem=  1610612736 cpu:               5.5 elap:               0.3
 (Enter /home/sekinelabo/g16/l716.exe)
 Dipole        =-3.30909169D-01-1.02643564D-01-7.83302198D-02
 ***** Axes restored to original set *****
 -------------------------------------------------------------------
 Center     Atomic                   Forces (Hartrees/Bohr)
 Number     Number              X              Y              Z
 -------------------------------------------------------------------
      1       11          -0.005684222    0.000005207    0.001965293
      2       11           0.005877201    0.000065306    0.000993278
      3       11           0.000512906   -0.003741811    0.002445067
      4       11          -0.000705884    0.003671297   -0.005403638
 -------------------------------------------------------------------
 Cartesian Forces:  Max     0.005877201 RMS     0.003355638
 Z-matrix is all fixed cartesians, so copy forces.
 Force constants in Cartesian coordinates: 
                1             2             3             4             5 
      1  0.244618D-03
      2 -0.106375D-02  0.462580D-02
      3  0.000000D+00  0.000000D+00  0.130987D-01
      4  0.000000D+00  0.000000D+00  0.000000D+00  0.100000D+01
      5  0.000000D+00  0.000000D+00  0.000000D+00  0.000000D+00  0.100000D+01
      6  0.000000D+00  0.000000D+00  0.000000D+00  0.000000D+00  0.000000D+00
      7 -0.430535D-03  0.187222D-02  0.000000D+00  0.000000D+00  0.000000D+00
      8  0.187222D-02 -0.814155D-02  0.000000D+00  0.000000D+00  0.000000D+00
      9  0.563722D-03 -0.245140D-02 -0.130987D-01  0.000000D+00  0.000000D+00
     10  0.185917D-03 -0.808479D-03  0.000000D+00  0.000000D+00  0.000000D+00
     11 -0.808479D-03  0.351575D-02  0.000000D+00  0.000000D+00  0.000000D+00
     12 -0.563722D-03  0.245140D-02  0.000000D+00  0.000000D+00  0.000000D+00
                6             7             8             9            10 
      6  0.100000D+01
      7  0.000000D+00  0.904077D-03
      8  0.000000D+00 -0.393147D-02  0.170964D-01
      9  0.000000D+00 -0.313468D-04  0.136315D-03  0.207070D-01
     10  0.000000D+00 -0.473542D-03  0.205924D-02 -0.532375D-03  0.287625D-03
     11  0.000000D+00  0.205924D-02 -0.895482D-02  0.231509D-02 -0.125076D-02
     12  0.000000D+00  0.313468D-04 -0.136315D-03 -0.760830D-02  0.532375D-03
               11            12 
     11  0.543907D-02
     12 -0.231509D-02  0.760830D-02
 Leave Link  716 at Wed Aug 23 10:07:56 2023, MaxMem=  1610612736 cpu:               0.3 elap:               0.0
 (Enter /home/sekinelabo/g16/l103.exe)

 GradGradGradGradGradGradGradGradGradGradGradGradGradGradGradGradGradGrad
 Berny optimization.
 Search for a local minimum.
 Step number   1 out of a maximum of    2
 All quantities printed in internal units (Hartrees-Bohrs-Radians)
 Second derivative matrix not updated -- first step.
 The second derivative matrix:
                          X1        Y1        Z1        X2        Y2
           X1           0.00024
           Y1          -0.00106   0.00463
           Z1          -0.00000   0.00000   0.01310
           X2           0.00000   0.00000   0.00000   1.00000
           Y2           0.00000   0.00000   0.00000  -0.00000   1.00000
           Z2           0.00000   0.00000   0.00000  -0.00000   0.00000
           X3          -0.00043   0.00187   0.00000   0.00000   0.00000
           Y3           0.00187  -0.00814  -0.00000   0.00000   0.00000
           Z3           0.00056  -0.00245  -0.01310   0.00000   0.00000
           X4           0.00019  -0.00081  -0.00000   0.00000   0.00000
           Y4          -0.00081   0.00352   0.00000   0.00000   0.00000
           Z4          -0.00056   0.00245   0.00000   0.00000   0.00000
                          Z2        X3        Y3        Z3        X4
           Z2           1.00000
           X3           0.00000   0.00090
           Y3           0.00000  -0.00393   0.01710
           Z3           0.00000  -0.00003   0.00014   0.02071
           X4           0.00000  -0.00047   0.00206  -0.00053   0.00029
           Y4           0.00000   0.00206  -0.00895   0.00232  -0.00125
           Z4           0.00000   0.00003  -0.00014  -0.00761   0.00053
                          Y4        Z4
           Y4           0.00544
           Z4          -0.00232   0.00761
 ITU=  0
     Eigenvalues ---    0.01046   0.02702   0.03253   0.03772   0.34557
     Eigenvalues ---    0.75000
 Quadratic step=6.036D-01 exceeds max=3.000D-01 adjusted using Lamda=-1.224D-02.
 Angle between NR and scaled steps=   9.23 degrees.
 Angle between quadratic step and forces=  42.66 degrees.
 Linear search not attempted -- first point.
 B after Tr=     0.000000    0.000000    0.000000
         Rot=    1.000000   -0.000000    0.000000   -0.000000 Ang=   0.00 deg.
 Variable       Old X    -DE/DX   Delta X   Delta X   Delta X     New X
                                 (Linear)    (Quad)   (Total)
    X1       -0.00000  -0.00568   0.00000  -0.02601  -0.02601  -0.02601
    Y1       -0.00000   0.00001   0.00000  -0.01273  -0.01273  -0.01273
    Z1       -0.00000   0.00197   0.00000   0.12842   0.12842   0.12842
    X2       -9.05321   0.00588   0.00000   0.01185   0.01185  -9.04135
    Y2       -0.00000   0.00007   0.00000  -0.00567  -0.00567  -0.00567
    Z2       -1.42312   0.00099   0.00000  -0.00433  -0.00433  -1.42745
    X3       -0.00000   0.00051   0.00000   0.05197   0.05197   0.05197
    Y3        0.00000  -0.00374   0.00000  -0.09381  -0.09381  -0.09381
    Z3        7.16451   0.00245   0.00000   0.07809   0.07809   7.24261
    X4        0.98208  -0.00071   0.00000  -0.03782  -0.03782   0.94427
    Y4       -4.27069   0.00367   0.00000   0.11221   0.11221  -4.15848
    Z4       13.61334  -0.00540   0.00000  -0.20218  -0.20218  13.41116
         Item               Value     Threshold  Converged?
 Maximum Force            0.005877     0.000450     NO 
 RMS     Force            0.003356     0.000300     NO 
 Maximum Displacement     0.202183     0.001800     NO 
 RMS     Displacement     0.086613     0.001200     NO 
 Predicted change in Energy=-1.833472D-03
 GradGradGradGradGradGradGradGradGradGradGradGradGradGradGradGradGradGrad

 Leave Link  103 at Wed Aug 23 10:07:56 2023, MaxMem=  1610612736 cpu:               0.1 elap:               0.0
 (Enter /home/sekinelabo/g16/l9999.exe)
 1\1\GINC-SEKINELABO-XA7R-R37\Force\RB3LYP\6-311+G(d)\Na4\SEKINELABO\23
 -Aug-2023\0\\#p B3LYP/6-311+g(d) force\\\0,1\Na,0.,0.,0.\Na,-4.7907508
 66,0.,-0.7530819364\Na,0.,0.,3.7912975875\Na,0.5196965208,-2.259950920
 9,7.203870638\\Version=ES64L-G16RevB.01\State=1-A\HF=-649.1750848\RMSD
 =4.901e-09\RMSF=3.356e-03\Dipole=-0.236079,-0.0285691,-0.2638612\Quadr
 upole=2.0592198,-4.1418452,2.0826254,-0.5941915,1.2352218,-3.1029139\P
 G=C01 [X(Na4)]\\@


 WHEN A MATHEMATICIAN ENGAGED IN INVESTIGATING
 PHYSICAL ACTIONS AND RESULTS HAS ARRIVED AT HIS
 CONCLUSIONS, MAY THEY NOT BE EXPRESSED IN COMMON
 LANGUAGE AS FULLY, CLEARLY, AND DEFINITELY AS IN
 MATHEMATICAL FORMULAE?
           - LETTER FROM M. FARADAY TO J.C. MAXWELL, 1857.
 Job cpu time:       0 days  0 hours  0 minutes 36.3 seconds.
 Elapsed time:       0 days  0 hours  0 minutes  2.5 seconds.
 File lengths (MBytes):  RWF=     10 Int=      0 D2E=      0 Chk=      2 Scr=      1
 Normal termination of Gaussian 16 at Wed Aug 23 10:07:56 2023.
 Initial command:
 /home/sekinelabo/g16/l1.exe "/home/sekinelabo/g16temp/Gau-2966229.inp" -scrdir="/home/sekinelabo/g16temp/"
 Entering Link 1 = /home/sekinelabo/g16/l1.exe PID=   2967683.
  
 Copyright (c) 1988-2017, Gaussian, Inc.  All Rights Reserved.
  
 This is part of the Gaussian(R) 16 program.  It is based on
 the Gaussian(R) 09 system (copyright 2009, Gaussian, Inc.),
 the Gaussian(R) 03 system (copyright 2003, Gaussian, Inc.),
 the Gaussian(R) 98 system (copyright 1998, Gaussian, Inc.),
 the Gaussian(R) 94 system (copyright 1995, Gaussian, Inc.),
 the Gaussian 92(TM) system (copyright 1992, Gaussian, Inc.),
 the Gaussian 90(TM) system (copyright 1990, Gaussian, Inc.),
 the Gaussian 88(TM) system (copyright 1988, Gaussian, Inc.),
 the Gaussian 86(TM) system (copyright 1986, Carnegie Mellon
 University), and the Gaussian 82(TM) system (copyright 1983,
 Carnegie Mellon University). Gaussian is a federally registered
 trademark of Gaussian, Inc.
  
 This software contains proprietary and confidential information,
 including trade secrets, belonging to Gaussian, Inc.
  
 This software is provided under written license and may be
 used, copied, transmitted, or stored only in accord with that
 written license.
  
 The following legend is applicable only to US Government
 contracts under FAR:
  
                    RESTRICTED RIGHTS LEGEND
  
 Use, reproduction and disclosure by the US Government is
 subject to restrictions as set forth in subparagraphs (a)
 and (c) of the Commercial Computer Software - Restricted
 Rights clause in FAR 52.227-19.
  
 Gaussian, Inc.
 340 Quinnipiac St., Bldg. 40, Wallingford CT 06492
  
  
 ---------------------------------------------------------------
 Warning -- This program may not be used in any manner that
 competes with the business of Gaussian, Inc. or will provide
 assistance to any competitor of Gaussian, Inc.  The licensee
 of this program is prohibited from giving any competitor of
 Gaussian, Inc. access to this program.  By using this program,
 the user acknowledges that Gaussian, Inc. is engaged in the
 business of creating and licensing software in the field of
 computational chemistry and represents and warrants to the
 licensee that it is not a competitor of Gaussian, Inc. and that
 it will not use this program in any manner prohibited above.
 ---------------------------------------------------------------
  

 Cite this work as:
 Gaussian 16, Revision B.01,
 M. J. Frisch, G. W. Trucks, H. B. Schlegel, G. E. Scuseria, 
 M. A. Robb, J. R. Cheeseman, G. Scalmani, V. Barone, 
 G. A. Petersson, H. Nakatsuji, X. Li, M. Caricato, A. V. Marenich, 
 J. Bloino, B. G. Janesko, R. Gomperts, B. Mennucci, H. P. Hratchian, 
 J. V. Ortiz, A. F. Izmaylov, J. L. Sonnenberg, D. Williams-Young, 
 F. Ding, F. Lipparini, F. Egidi, J. Goings, B. Peng, A. Petrone, 
 T. Henderson, D. Ranasinghe, V. G. Zakrzewski, J. Gao, N. Rega, 
 G. Zheng, W. Liang, M. Hada, M. Ehara, K. Toyota, R. Fukuda, 
 J. Hasegawa, M. Ishida, T. Nakajima, Y. Honda, O. Kitao, H. Nakai, 
 T. Vreven, K. Throssell, J. A. Montgomery, Jr., J. E. Peralta, 
 F. Ogliaro, M. J. Bearpark, J. J. Heyd, E. N. Brothers, K. N. Kudin, 
 V. N. Staroverov, T. A. Keith, R. Kobayashi, J. Normand, 
 K. Raghavachari, A. P. Rendell, J. C. Burant, S. S. Iyengar, 
 J. Tomasi, M. Cossi, J. M. Millam, M. Klene, C. Adamo, R. Cammi, 
 J. W. Ochterski, R. L. Martin, K. Morokuma, O. Farkas, 
 J. B. Foresman, and D. J. Fox, Gaussian, Inc., Wallingford CT, 2016.
 
 ******************************************
 Gaussian 16:  ES64L-G16RevB.01 20-Dec-2017
                28-Aug-2023 
 ******************************************
 %NProcShared=16
 Will use up to   16 processors via shared memory.
 %mem=12GB
 %Chk=checkpoint.chk
 -------------------------
 #p B3LYP/6-311+g(d) force
 -------------------------
 1/10=7,30=1,38=1/1,3;
 2/12=2,17=6,18=5,40=1/2;
 3/5=4,6=6,7=11,11=2,25=1,30=1,71=1,74=-5/1,2,3;
 4//1;
 5/5=2,38=5/2;
 6/7=2,8=2,9=2,10=2,28=1/1;
 7/29=1/1,2,3,16;
 1/10=7,30=1/3;
 99//99;
 Leave Link    1 at Mon Aug 28 10:18:14 2023, MaxMem=  1610612736 cpu:               0.2 elap:               0.0
 (Enter /home/sekinelabo/g16/l101.exe)


 Symbolic Z-matrix:
 Charge =  0 Multiplicity = 1
 Na                    0.        0.        0. 
 Na                   -1.76997   0.        1.3692 
 Na                    0.        0.        4.84711 
 Na                    1.39683  -4.86195   3.60104 
 
 ITRead=  0  0  0  0
 MicOpt= -1 -1 -1 -1
 NAtoms=      4 NQM=        4 NQMF=       0 NMMI=      0 NMMIF=      0
                NMic=       0 NMicF=      0.
                    Isotopes and Nuclear Properties:
 (Nuclear quadrupole moments (NQMom) in fm**2, nuclear magnetic moments (NMagM)
  in nuclear magnetons)

  Atom         1           2           3           4
 IAtWgt=          23          23          23          23
 AtmWgt=  22.9897697  22.9897697  22.9897697  22.9897697
 NucSpn=           3           3           3           3
 AtZEff=  -0.0000000  -0.0000000  -0.0000000  -0.0000000
 NQMom=   10.4000000  10.4000000  10.4000000  10.4000000
 NMagM=    2.2175200   2.2175200   2.2175200   2.2175200
 AtZNuc=  11.0000000  11.0000000  11.0000000  11.0000000
 Leave Link  101 at Mon Aug 28 10:18:14 2023, MaxMem=  1610612736 cpu:               1.8 elap:               0.1
 (Enter /home/sekinelabo/g16/l103.exe)

 GradGradGradGradGradGradGradGradGradGradGradGradGradGradGradGradGradGrad
 Berny optimization.
 Initialization pass.
 Trust Radius=3.00D-01 FncErr=1.00D-07 GrdErr=1.00D-07 EigMax=2.50D+02 EigMin=1.00D-04
 Number of steps in this run=      2 maximum allowed number of steps=      2.
 GradGradGradGradGradGradGradGradGradGradGradGradGradGradGradGradGradGrad

 Leave Link  103 at Mon Aug 28 10:18:14 2023, MaxMem=  1610612736 cpu:               0.2 elap:               0.0
 (Enter /home/sekinelabo/g16/l202.exe)
                          Input orientation:                          
 ---------------------------------------------------------------------
 Center     Atomic      Atomic             Coordinates (Angstroms)
 Number     Number       Type             X           Y           Z
 ---------------------------------------------------------------------
      1         11           0        0.000000    0.000000    0.000000
      2         11           0       -1.769974    0.000000    1.369197
      3         11           0        0.000000    0.000000    4.847110
      4         11           0        1.396832   -4.861952    3.601037
 ---------------------------------------------------------------------
                    Distance matrix (angstroms):
                    1          2          3          4
     1  Na   0.000000
     2  Na   2.237746   0.000000
     3  Na   4.847110   3.902395   0.000000
     4  Na   6.209443   6.216779   5.209838   0.000000
 Stoichiometry    Na4
 Framework group  C1[X(Na4)]
 Deg. of freedom     6
 Full point group                 C1      NOp   1
 Largest Abelian subgroup         C1      NOp   1
 Largest concise Abelian subgroup C1      NOp   1
                         Standard orientation:                         
 ---------------------------------------------------------------------
 Center     Atomic      Atomic             Coordinates (Angstroms)
 Number     Number       Type             X           Y           Z
 ---------------------------------------------------------------------
      1         11           0       -2.177109   -1.477216   -0.766751
      2         11           0       -2.121798   -0.078134    0.978820
      3         11           0        0.344636    2.640743   -0.345225
      4         11           0        3.954271   -1.085393    0.133156
 ---------------------------------------------------------------------
 Rotational constants (GHZ):           1.8284267           0.8239492           0.6220940
 Leave Link  202 at Mon Aug 28 10:18:14 2023, MaxMem=  1610612736 cpu:               0.0 elap:               0.0
 (Enter /home/sekinelabo/g16/l301.exe)
 Standard basis: 6-311+G(d) (5D, 7F)
 Ernie: Thresh=  0.10000D-02 Tol=  0.10000D-05 Strict=F.
 There are   124 symmetry adapted cartesian basis functions of A   symmetry.
 There are   120 symmetry adapted basis functions of A   symmetry.
   120 basis functions,   200 primitive gaussians,   124 cartesian basis functions
    22 alpha electrons       22 beta electrons
       nuclear repulsion energy        91.1335175452 Hartrees.
 IExCor=  402 DFT=T Ex+Corr=B3LYP ExCW=0 ScaHFX=  0.200000
 ScaDFX=  0.800000  0.720000  1.000000  0.810000 ScalE2=  1.000000  1.000000
 IRadAn=      5 IRanWt=     -1 IRanGd=            0 ICorTp=0 IEmpDi=  4
 NAtoms=    4 NActive=    4 NUniq=    4 SFac= 1.00D+00 NAtFMM=   60 NAOKFM=F Big=F
 Integral buffers will be    131072 words long.
 Raffenetti 2 integral format.
 Two-electron integral symmetry is turned on.
 Leave Link  301 at Mon Aug 28 10:18:14 2023, MaxMem=  1610612736 cpu:               0.4 elap:               0.0
 (Enter /home/sekinelabo/g16/l302.exe)
 NPDir=0 NMtPBC=     1 NCelOv=     1 NCel=       1 NClECP=     1 NCelD=      1
         NCelK=      1 NCelE2=     1 NClLst=     1 CellRange=     0.0.
 One-electron integrals computed using PRISM.
 One-electron integral symmetry used in STVInt
 NBasis=   120 RedAO= T EigKep=  1.33D-05  NBF=   120
 NBsUse=   120 1.00D-06 EigRej= -1.00D+00 NBFU=   120
 Precomputing XC quadrature grid using
 IXCGrd= 4 IRadAn=           5 IRanWt=          -1 IRanGd=           0 AccXCQ= 0.00D+00.
 Generated NRdTot=       0 NPtTot=           0 NUsed=           0 NTot=          32
 NSgBfM=   116   116   116   116   116 MxSgAt=     4 MxSgA2=     4.
 Leave Link  302 at Mon Aug 28 10:18:15 2023, MaxMem=  1610612736 cpu:               1.4 elap:               0.1
 (Enter /home/sekinelabo/g16/l303.exe)
 DipDrv:  MaxL=1.
 Leave Link  303 at Mon Aug 28 10:18:15 2023, MaxMem=  1610612736 cpu:               0.3 elap:               0.0
 (Enter /home/sekinelabo/g16/l401.exe)
 ExpMin= 7.60D-03 ExpMax= 3.62D+04 ExpMxC= 1.21D+03 IAcc=3 IRadAn=         5 AccDes= 0.00D+00
 Harris functional with IExCor=  402 and IRadAn=       5 diagonalized for initial guess.
 HarFok:  IExCor=  402 AccDes= 0.00D+00 IRadAn=         5 IDoV= 1 UseB2=F ITyADJ=14
 ICtDFT=  3500011 ScaDFX=  1.000000  1.000000  1.000000  1.000000
 FoFCou: FMM=F IPFlag=           0 FMFlag=      100000 FMFlg1=           0
         NFxFlg=           0 DoJE=T BraDBF=F KetDBF=T FulRan=T
         wScrn=  0.000000 ICntrl=       500 IOpCl=  0 I1Cent=   200000004 NGrid=           0
         NMat0=    1 NMatS0=      1 NMatT0=    0 NMatD0=    1 NMtDS0=    0 NMtDT0=    0
 Petite list used in FoFCou.
 Harris En= -649.027132235310    
 JPrj=0 DoOrth=F DoCkMO=F.
 Leave Link  401 at Mon Aug 28 10:18:15 2023, MaxMem=  1610612736 cpu:               2.0 elap:               0.1
 (Enter /home/sekinelabo/g16/l502.exe)
 Keep R1 ints in memory in canonical form, NReq=41581754.
 FoFCou: FMM=F IPFlag=           0 FMFlag=           0 FMFlg1=           0
         NFxFlg=           0 DoJE=F BraDBF=F KetDBF=F FulRan=T
         wScrn=  0.000000 ICntrl=       600 IOpCl=  0 I1Cent=           0 NGrid=           0
         NMat0=    1 NMatS0=   7260 NMatT0=    0 NMatD0=    1 NMtDS0=    0 NMtDT0=    0
 Symmetry not used in FoFCou.
 Two-electron integral symmetry not used.
 Closed shell SCF:
 Using DIIS extrapolation, IDIIS=  1040.
 NGot=  1610612736 LenX=  1584221388 LenY=  1584205571
 Requested convergence on RMS density matrix=1.00D-08 within 128 cycles.
 Requested convergence on MAX density matrix=1.00D-06.
 Requested convergence on             energy=1.00D-06.
 No special actions if energy rises.

 Cycle   1  Pass 1  IDiag  1:
 E= -649.141908760894    
 DIIS: error= 1.03D-02 at cycle   1 NSaved=   1.
 NSaved= 1 IEnMin= 1 EnMin= -649.141908760894     IErMin= 1 ErrMin= 1.03D-02
 ErrMax= 1.03D-02  0.00D+00 EMaxC= 1.00D-01 BMatC= 2.68D-02 BMatP= 2.68D-02
 IDIUse=3 WtCom= 8.97D-01 WtEn= 1.03D-01
 Coeff-Com:  0.100D+01
 Coeff-En:   0.100D+01
 Coeff:      0.100D+01
 Gap=     0.028 Goal=   None    Shift=    0.000
 GapD=    0.028 DampG=0.250 DampE=0.500 DampFc=0.2500 IDamp=-1.
 Damping current iteration by 2.50D-01
 RMSDP=2.81D-03 MaxDP=7.07D-02              OVMax= 6.00D-02

 Cycle   2  Pass 1  IDiag  1:
 E= -649.145861517971     Delta-E=       -0.003952757077 Rises=F Damp=T
 DIIS: error= 7.09D-03 at cycle   2 NSaved=   2.
 NSaved= 2 IEnMin= 2 EnMin= -649.145861517971     IErMin= 2 ErrMin= 7.09D-03
 ErrMax= 7.09D-03  0.00D+00 EMaxC= 1.00D-01 BMatC= 1.03D-02 BMatP= 2.68D-02
 IDIUse=3 WtCom= 9.29D-01 WtEn= 7.09D-02
 Coeff-Com: -0.130D+01 0.230D+01
 Coeff-En:   0.000D+00 0.100D+01
 Coeff:     -0.121D+01 0.221D+01
 Gap=     0.028 Goal=   None    Shift=    0.000
 RMSDP=2.57D-03 MaxDP=8.90D-02 DE=-3.95D-03 OVMax= 4.81D-02

 Cycle   3  Pass 1  IDiag  1:
 E= -649.153711215590     Delta-E=       -0.007849697619 Rises=F Damp=F
 DIIS: error= 9.36D-04 at cycle   3 NSaved=   3.
 NSaved= 3 IEnMin= 3 EnMin= -649.153711215590     IErMin= 3 ErrMin= 9.36D-04
 ErrMax= 9.36D-04  0.00D+00 EMaxC= 1.00D-01 BMatC= 5.85D-05 BMatP= 1.03D-02
 IDIUse=3 WtCom= 9.91D-01 WtEn= 9.36D-03
 Coeff-Com: -0.309D-01 0.570D-01 0.974D+00
 Coeff-En:   0.000D+00 0.000D+00 0.100D+01
 Coeff:     -0.306D-01 0.565D-01 0.974D+00
 Gap=     0.027 Goal=   None    Shift=    0.000
 RMSDP=1.64D-03 MaxDP=9.14D-02 DE=-7.85D-03 OVMax= 1.73D-01

 Cycle   4  Pass 1  IDiag  1:
 E= -649.147202220585     Delta-E=        0.006508995005 Rises=F Damp=F
 DIIS: error= 3.38D-03 at cycle   4 NSaved=   4.
 NSaved= 4 IEnMin= 3 EnMin= -649.153711215590     IErMin= 3 ErrMin= 9.36D-04
 ErrMax= 3.38D-03  0.00D+00 EMaxC= 1.00D-01 BMatC= 8.43D-04 BMatP= 5.85D-05
 IDIUse=3 WtCom= 1.47D-01 WtEn= 8.53D-01
 Coeff-Com:  0.644D-02-0.716D-02 0.798D+00 0.203D+00
 Coeff-En:   0.000D+00 0.000D+00 0.877D+00 0.123D+00
 Coeff:      0.945D-03-0.105D-02 0.866D+00 0.134D+00
 Gap=     0.028 Goal=   None    Shift=    0.000
 RMSDP=9.49D-04 MaxDP=4.78D-02 DE= 6.51D-03 OVMax= 9.63D-02

 Cycle   5  Pass 1  IDiag  1:
 E= -649.153398730665     Delta-E=       -0.006196510080 Rises=F Damp=F
 DIIS: error= 1.18D-03 at cycle   5 NSaved=   5.
 NSaved= 5 IEnMin= 3 EnMin= -649.153711215590     IErMin= 3 ErrMin= 9.36D-04
 ErrMax= 1.18D-03  0.00D+00 EMaxC= 1.00D-01 BMatC= 9.12D-05 BMatP= 5.85D-05
 IDIUse=3 WtCom= 2.26D-01 WtEn= 7.74D-01
 Coeff-Com: -0.139D-02 0.171D-02 0.338D+00-0.197D+00 0.859D+00
 Coeff-En:   0.000D+00 0.000D+00 0.588D+00 0.000D+00 0.412D+00
 Coeff:     -0.313D-03 0.387D-03 0.531D+00-0.444D-01 0.513D+00
 Gap=     0.028 Goal=   None    Shift=    0.000
 RMSDP=3.93D-04 MaxDP=2.18D-02 DE=-6.20D-03 OVMax= 4.18D-02

 Cycle   6  Pass 1  IDiag  1:
 E= -649.154115930020     Delta-E=       -0.000717199355 Rises=F Damp=F
 DIIS: error= 1.01D-04 at cycle   6 NSaved=   6.
 NSaved= 6 IEnMin= 6 EnMin= -649.154115930020     IErMin= 6 ErrMin= 1.01D-04
 ErrMax= 1.01D-04  0.00D+00 EMaxC= 1.00D-01 BMatC= 7.73D-07 BMatP= 5.85D-05
 IDIUse=3 WtCom= 9.99D-01 WtEn= 1.01D-03
 Coeff-Com: -0.155D-02 0.176D-02 0.939D-01 0.110D-01-0.394D-01 0.934D+00
 Coeff-En:   0.000D+00 0.000D+00 0.000D+00 0.000D+00 0.000D+00 0.100D+01
 Coeff:     -0.155D-02 0.176D-02 0.938D-01 0.110D-01-0.393D-01 0.934D+00
 Gap=     0.028 Goal=   None    Shift=    0.000
 RMSDP=3.85D-05 MaxDP=1.77D-03 DE=-7.17D-04 OVMax= 3.26D-03

 Cycle   7  Pass 1  IDiag  1:
 E= -649.154120767949     Delta-E=       -0.000004837929 Rises=F Damp=F
 DIIS: error= 1.06D-05 at cycle   7 NSaved=   7.
 NSaved= 7 IEnMin= 7 EnMin= -649.154120767949     IErMin= 7 ErrMin= 1.06D-05
 ErrMax= 1.06D-05  0.00D+00 EMaxC= 1.00D-01 BMatC= 2.00D-08 BMatP= 7.73D-07
 IDIUse=1 WtCom= 1.00D+00 WtEn= 0.00D+00
 Coeff-Com: -0.105D-02 0.127D-02 0.613D-02 0.379D-02-0.341D-01 0.310D+00
 Coeff-Com:  0.714D+00
 Coeff:     -0.105D-02 0.127D-02 0.613D-02 0.379D-02-0.341D-01 0.310D+00
 Coeff:      0.714D+00
 Gap=     0.028 Goal=   None    Shift=    0.000
 RMSDP=1.16D-05 MaxDP=3.37D-04 DE=-4.84D-06 OVMax= 5.26D-04

 Cycle   8  Pass 1  IDiag  1:
 E= -649.154120820992     Delta-E=       -0.000000053043 Rises=F Damp=F
 DIIS: error= 4.91D-06 at cycle   8 NSaved=   8.
 NSaved= 8 IEnMin= 8 EnMin= -649.154120820992     IErMin= 8 ErrMin= 4.91D-06
 ErrMax= 4.91D-06  0.00D+00 EMaxC= 1.00D-01 BMatC= 2.87D-09 BMatP= 2.00D-08
 IDIUse=1 WtCom= 1.00D+00 WtEn= 0.00D+00
 Coeff-Com: -0.299D-03 0.369D-03-0.479D-02 0.436D-03-0.603D-02 0.224D-01
 Coeff-Com:  0.286D+00 0.702D+00
 Coeff:     -0.299D-03 0.369D-03-0.479D-02 0.436D-03-0.603D-02 0.224D-01
 Coeff:      0.286D+00 0.702D+00
 Gap=     0.028 Goal=   None    Shift=    0.000
 RMSDP=2.26D-06 MaxDP=8.92D-05 DE=-5.30D-08 OVMax= 1.30D-04

 Cycle   9  Pass 1  IDiag  1:
 E= -649.154120830630     Delta-E=       -0.000000009638 Rises=F Damp=F
 DIIS: error= 1.29D-06 at cycle   9 NSaved=   9.
 NSaved= 9 IEnMin= 9 EnMin= -649.154120830630     IErMin= 9 ErrMin= 1.29D-06
 ErrMax= 1.29D-06  0.00D+00 EMaxC= 1.00D-01 BMatC= 1.66D-10 BMatP= 2.87D-09
 IDIUse=1 WtCom= 1.00D+00 WtEn= 0.00D+00
 Coeff-Com:  0.130D-03-0.169D-03-0.890D-03-0.657D-03 0.496D-02-0.292D-01
 Coeff-Com: -0.148D-01 0.112D+00 0.929D+00
 Coeff:      0.130D-03-0.169D-03-0.890D-03-0.657D-03 0.496D-02-0.292D-01
 Coeff:     -0.148D-01 0.112D+00 0.929D+00
 Gap=     0.028 Goal=   None    Shift=    0.000
 RMSDP=1.87D-06 MaxDP=5.99D-05 DE=-9.64D-09 OVMax= 4.11D-05

 Cycle  10  Pass 1  IDiag  1:
 E= -649.154120831644     Delta-E=       -0.000000001014 Rises=F Damp=F
 DIIS: error= 2.00D-07 at cycle  10 NSaved=  10.
 NSaved=10 IEnMin=10 EnMin= -649.154120831644     IErMin=10 ErrMin= 2.00D-07
 ErrMax= 2.00D-07  0.00D+00 EMaxC= 1.00D-01 BMatC= 1.83D-12 BMatP= 1.66D-10
 IDIUse=1 WtCom= 1.00D+00 WtEn= 0.00D+00
 Coeff-Com:  0.363D-04-0.468D-04-0.626D-05-0.229D-03 0.155D-02-0.735D-02
 Coeff-Com: -0.122D-01 0.162D-02 0.175D+00 0.842D+00
 Coeff:      0.363D-04-0.468D-04-0.626D-05-0.229D-03 0.155D-02-0.735D-02
 Coeff:     -0.122D-01 0.162D-02 0.175D+00 0.842D+00
 Gap=     0.028 Goal=   None    Shift=    0.000
 RMSDP=1.83D-07 MaxDP=5.80D-06 DE=-1.01D-09 OVMax= 5.34D-06

 Cycle  11  Pass 1  IDiag  1:
 E= -649.154120831655     Delta-E=       -0.000000000011 Rises=F Damp=F
 DIIS: error= 5.32D-08 at cycle  11 NSaved=  11.
 NSaved=11 IEnMin=11 EnMin= -649.154120831655     IErMin=11 ErrMin= 5.32D-08
 ErrMax= 5.32D-08  0.00D+00 EMaxC= 1.00D-01 BMatC= 3.37D-13 BMatP= 1.83D-12
 IDIUse=1 WtCom= 1.00D+00 WtEn= 0.00D+00
 Coeff-Com:  0.225D-05-0.271D-05 0.324D-04-0.529D-05 0.274D-04-0.217D-03
 Coeff-Com: -0.272D-02-0.881D-02 0.352D-03 0.229D+00 0.782D+00
 Coeff:      0.225D-05-0.271D-05 0.324D-04-0.529D-05 0.274D-04-0.217D-03
 Coeff:     -0.272D-02-0.881D-02 0.352D-03 0.229D+00 0.782D+00
 Gap=     0.028 Goal=   None    Shift=    0.000
 RMSDP=4.92D-08 MaxDP=1.37D-06 DE=-1.09D-11 OVMax= 2.46D-06

 Cycle  12  Pass 1  IDiag  1:
 E= -649.154120831658     Delta-E=       -0.000000000003 Rises=F Damp=F
 DIIS: error= 7.52D-09 at cycle  12 NSaved=  12.
 NSaved=12 IEnMin=12 EnMin= -649.154120831658     IErMin=12 ErrMin= 7.52D-09
 ErrMax= 7.52D-09  0.00D+00 EMaxC= 1.00D-01 BMatC= 1.43D-14 BMatP= 3.37D-13
 IDIUse=1 WtCom= 1.00D+00 WtEn= 0.00D+00
 Coeff-Com: -0.311D-05 0.408D-05 0.438D-05 0.125D-04-0.959D-04 0.444D-03
 Coeff-Com:  0.529D-03-0.932D-03-0.130D-01-0.168D-01 0.193D+00 0.837D+00
 Coeff:     -0.311D-05 0.408D-05 0.438D-05 0.125D-04-0.959D-04 0.444D-03
 Coeff:      0.529D-03-0.932D-03-0.130D-01-0.168D-01 0.193D+00 0.837D+00
 Gap=     0.028 Goal=   None    Shift=    0.000
 RMSDP=1.09D-08 MaxDP=2.61D-07 DE=-3.18D-12 OVMax= 6.68D-07

 Cycle  13  Pass 1  IDiag  1:
 E= -649.154120831658     Delta-E=        0.000000000000 Rises=F Damp=F
 DIIS: error= 8.54D-09 at cycle  13 NSaved=  13.
 NSaved=13 IEnMin=12 EnMin= -649.154120831658     IErMin=12 ErrMin= 7.52D-09
 ErrMax= 8.54D-09  0.00D+00 EMaxC= 1.00D-01 BMatC= 5.96D-15 BMatP= 1.43D-14
 IDIUse=1 WtCom= 1.00D+00 WtEn= 0.00D+00
 Coeff-Com: -0.827D-06 0.108D-05 0.158D-06 0.169D-05-0.131D-04 0.106D-03
 Coeff-Com:  0.239D-03 0.942D-05-0.369D-02-0.178D-01 0.268D-02 0.223D+00
 Coeff-Com:  0.795D+00
 Coeff:     -0.827D-06 0.108D-05 0.158D-06 0.169D-05-0.131D-04 0.106D-03
 Coeff:      0.239D-03 0.942D-05-0.369D-02-0.178D-01 0.268D-02 0.223D+00
 Coeff:      0.795D+00
 Gap=     0.028 Goal=   None    Shift=    0.000
 RMSDP=3.80D-09 MaxDP=2.01D-07 DE= 2.27D-13 OVMax= 2.82D-07

 SCF Done:  E(RB3LYP) =  -649.154120832     A.U. after   13 cycles
            NFock= 13  Conv=0.38D-08     -V/T= 2.0027
 KE= 6.474029363016D+02 PE=-1.741059570428D+03 EE= 3.533689957499D+02
 Leave Link  502 at Mon Aug 28 10:18:16 2023, MaxMem=  1610612736 cpu:              20.0 elap:               1.4
 (Enter /home/sekinelabo/g16/l601.exe)
 Copying SCF densities to generalized density rwf, IOpCl= 0 IROHF=0.

 **********************************************************************

            Population analysis using the SCF Density.

 **********************************************************************

 Orbital symmetries:
       Occupied  (A) (A) (A) (A) (A) (A) (A) (A) (A) (A) (A) (A)
                 (A) (A) (A) (A) (A) (A) (A) (A) (A) (A)
       Virtual   (A) (A) (A) (A) (A) (A) (A) (A) (A) (A) (A) (A)
                 (A) (A) (A) (A) (A) (A) (A) (A) (A) (A) (A) (A)
                 (A) (A) (A) (A) (A) (A) (A) (A) (A) (A) (A) (A)
                 (A) (A) (A) (A) (A) (A) (A) (A) (A) (A) (A) (A)
                 (A) (A) (A) (A) (A) (A) (A) (A) (A) (A) (A) (A)
                 (A) (A) (A) (A) (A) (A) (A) (A) (A) (A) (A) (A)
                 (A) (A) (A) (A) (A) (A) (A) (A) (A) (A) (A) (A)
                 (A) (A) (A) (A) (A) (A) (A) (A) (A) (A) (A) (A)
                 (A) (A)
 The electronic state is 1-A.
 Alpha  occ. eigenvalues --  -38.46079 -38.46000 -38.45707 -38.45544  -2.22095
 Alpha  occ. eigenvalues --   -2.21770  -2.21580  -2.21225  -1.17023  -1.15575
 Alpha  occ. eigenvalues --   -1.15550  -1.15457  -1.15423  -1.15414  -1.15118
 Alpha  occ. eigenvalues --   -1.15084  -1.14905  -1.14902  -1.14863  -1.14612
 Alpha  occ. eigenvalues --   -0.15049  -0.10965
 Alpha virt. eigenvalues --   -0.08133  -0.04832  -0.03423  -0.03145  -0.01791
 Alpha virt. eigenvalues --   -0.01543  -0.00776  -0.00566  -0.00085   0.00007
 Alpha virt. eigenvalues --    0.00522   0.00701   0.00957   0.01225   0.01354
 Alpha virt. eigenvalues --    0.01608   0.01631   0.01721   0.01852   0.02059
 Alpha virt. eigenvalues --    0.02108   0.02271   0.02378   0.02537   0.02781
 Alpha virt. eigenvalues --    0.02993   0.03422   0.03522   0.04134   0.05369
 Alpha virt. eigenvalues --    0.06161   0.06722   0.07122   0.07758   0.08180
 Alpha virt. eigenvalues --    0.08316   0.08506   0.08772   0.08982   0.10196
 Alpha virt. eigenvalues --    0.10391   0.10617   0.11583   0.11966   0.13006
 Alpha virt. eigenvalues --    0.17169   0.28351   0.29172   0.29667   0.30550
 Alpha virt. eigenvalues --    0.33424   0.34430   0.34518   0.34866   0.35069
 Alpha virt. eigenvalues --    0.35164   0.35399   0.35524   0.36487   0.36741
 Alpha virt. eigenvalues --    0.37930   0.41263   0.42079   0.42139   0.42253
 Alpha virt. eigenvalues --    0.42758   0.43260   0.43802   0.44478   0.44692
 Alpha virt. eigenvalues --    0.45743   0.46803   0.48616   0.49746   0.52407
 Alpha virt. eigenvalues --    0.60377   0.60948   0.85519   2.01837   2.03042
 Alpha virt. eigenvalues --    2.07512   2.15461   4.41660   4.42723   4.43085
 Alpha virt. eigenvalues --    4.43506   4.43732   4.44370   4.44560   4.46103
 Alpha virt. eigenvalues --    4.48117   4.48825   4.56644   4.73603  96.21046
 Alpha virt. eigenvalues --   96.22521  96.27947  96.38638
          Condensed to atoms (all electrons):
               1          2          3          4
     1  Na  10.720761   0.266399  -0.212755  -0.134857
     2  Na   0.266399  10.998116   0.090800  -0.074740
     3  Na  -0.212755   0.090800  10.948706   0.231370
     4  Na  -0.134857  -0.074740   0.231370  10.999984
 Mulliken charges:
               1
     1  Na   0.360452
     2  Na  -0.280576
     3  Na  -0.058120
     4  Na  -0.021757
 Sum of Mulliken charges =  -0.00000
 Mulliken charges with hydrogens summed into heavy atoms:
               1
     1  Na   0.360452
     2  Na  -0.280576
     3  Na  -0.058120
     4  Na  -0.021757
 Electronic spatial extent (au):  <R**2>=           1546.0542
 Charge=             -0.0000 electrons
 Dipole moment (field-independent basis, Debye):
    X=             -0.6721    Y=              0.0266    Z=             -0.2425  Tot=              0.7150
 Quadrupole moment (field-independent basis, Debye-Ang):
   XX=            -47.9209   YY=            -35.4312   ZZ=            -40.2012
   XY=             -5.6451   XZ=              0.3430   YZ=              1.6804
 Traceless Quadrupole moment (field-independent basis, Debye-Ang):
   XX=             -6.7364   YY=              5.7532   ZZ=              0.9832
   XY=             -5.6451   XZ=              0.3430   YZ=              1.6804
 Octapole moment (field-independent basis, Debye-Ang**2):
  XXX=              3.7514  YYY=             13.2709  ZZZ=              1.0125  XYY=             -6.8222
  XXY=            -13.3905  XXZ=              3.0327  XZZ=            -16.8723  YZZ=             -2.7682
  YYZ=             -9.8888  XYZ=             -7.9132
 Hexadecapole moment (field-independent basis, Debye-Ang**3):
 XXXX=          -1930.9981 YYYY=           -737.1824 ZZZZ=           -256.6132 XXXY=            -99.4747
 XXXZ=             10.3992 YYYX=            -24.6329 YYYZ=              4.3012 ZZZX=             -2.2817
 ZZZY=             10.7278 XXYY=           -453.7677 XXZZ=           -354.8332 YYZZ=           -173.6984
 XXYZ=             17.3666 YYXZ=             12.6497 ZZXY=             -3.9339
 N-N= 9.113351754518D+01 E-N=-1.741059570888D+03  KE= 6.474029363016D+02
 No NMR shielding tensors so no spin-rotation constants.
 Leave Link  601 at Mon Aug 28 10:18:16 2023, MaxMem=  1610612736 cpu:               0.9 elap:               0.1
 (Enter /home/sekinelabo/g16/l701.exe)
 ... and contract with generalized density number  0.
 Compute integral first derivatives.
 Leave Link  701 at Mon Aug 28 10:18:16 2023, MaxMem=  1610612736 cpu:               1.3 elap:               0.1
 (Enter /home/sekinelabo/g16/l702.exe)
 L702 exits ... SP integral derivatives will be done elsewhere.
 Leave Link  702 at Mon Aug 28 10:18:16 2023, MaxMem=  1610612736 cpu:               0.4 elap:               0.0
 (Enter /home/sekinelabo/g16/l703.exe)
 Integral derivatives from FoFJK, PRISM(SPDF).
 Compute integral first derivatives, UseDBF=F ICtDFT=           0.
 Calling FoFJK, ICntrl=      2127 FMM=F ISym2X=0 I1Cent= 0 IOpClX= 0 NMat=1 NMatS=1 NMatT=0.
 FoFJK:  IHMeth= 1 ICntrl=    2127 DoSepK=F KAlg= 0 I1Cent=           0 FoldK=F
 IRaf=         0 NMat=       1 IRICut=       1 DoRegI=T DoRafI=F ISym2E= 0 IDoP0=0 IntGTp=1.
 FoFCou: FMM=F IPFlag=           0 FMFlag=      100000 FMFlg1=         800
         NFxFlg=           0 DoJE=F BraDBF=F KetDBF=F FulRan=T
         wScrn=  0.000000 ICntrl=      2127 IOpCl=  0 I1Cent=           0 NGrid=           0
         NMat0=    1 NMatS0=      1 NMatT0=    0 NMatD0=    1 NMtDS0=    0 NMtDT0=    0
 Symmetry not used in FoFCou.
 Leave Link  703 at Mon Aug 28 10:18:17 2023, MaxMem=  1610612736 cpu:               6.3 elap:               0.4
 (Enter /home/sekinelabo/g16/l716.exe)
 Dipole        =-2.64417653D-01 1.04480985D-02-9.54143375D-02
 ***** Axes restored to original set *****
 -------------------------------------------------------------------
 Center     Atomic                   Forces (Hartrees/Bohr)
 Number     Number              X              Y              Z
 -------------------------------------------------------------------
      1       11           0.028208765    0.000919161   -0.021682660
      2       11          -0.028250923    0.000100504    0.022541598
      3       11           0.001350734   -0.005699120   -0.003047083
      4       11          -0.001308575    0.004679455    0.002188145
 -------------------------------------------------------------------
 Cartesian Forces:  Max     0.028250923 RMS     0.014846302
 Z-matrix is all fixed cartesians, so copy forces.
 Force constants in Cartesian coordinates: 
                1             2             3             4             5 
      1  0.112772D+00
      2  0.000000D+00  0.000000D+00
      3 -0.764219D-01  0.000000D+00  0.730981D-01
      4 -0.117143D+00  0.000000D+00  0.707707D-01  0.127554D+00
      5  0.000000D+00  0.000000D+00  0.000000D+00  0.000000D+00  0.000000D+00
      6  0.786467D-01  0.000000D+00 -0.702221D-01 -0.701628D-01  0.000000D+00
      7  0.437163D-02  0.000000D+00  0.565124D-02 -0.104103D-01  0.000000D+00
      8  0.000000D+00  0.000000D+00  0.000000D+00  0.000000D+00  0.000000D+00
      9 -0.222480D-02  0.000000D+00 -0.287602D-02 -0.607876D-03  0.000000D+00
     10  0.000000D+00  0.000000D+00  0.000000D+00  0.000000D+00  0.000000D+00
     11  0.000000D+00  0.000000D+00  0.000000D+00  0.000000D+00  0.000000D+00
     12  0.000000D+00  0.000000D+00  0.000000D+00  0.000000D+00  0.000000D+00
                6             7             8             9            10 
      6  0.775092D-01
      7 -0.848392D-02  0.603866D-02
      8  0.000000D+00  0.000000D+00  0.000000D+00
      9 -0.728711D-02  0.283268D-02  0.000000D+00  0.101631D-01
     10  0.000000D+00  0.000000D+00  0.000000D+00  0.000000D+00  0.100000D+01
     11  0.000000D+00  0.000000D+00  0.000000D+00  0.000000D+00  0.000000D+00
     12  0.000000D+00  0.000000D+00  0.000000D+00  0.000000D+00  0.000000D+00
               11            12 
     11  0.100000D+01
     12  0.000000D+00  0.100000D+01
 Leave Link  716 at Mon Aug 28 10:18:17 2023, MaxMem=  1610612736 cpu:               0.3 elap:               0.0
 (Enter /home/sekinelabo/g16/l103.exe)

 GradGradGradGradGradGradGradGradGradGradGradGradGradGradGradGradGradGrad
 Berny optimization.
 Search for a local minimum.
 Step number   1 out of a maximum of    2
 All quantities printed in internal units (Hartrees-Bohrs-Radians)
 Second derivative matrix not updated -- first step.
 The second derivative matrix:
                          X1        Y1        Z1        X2        Y2
           X1           0.11277
           Y1           0.00000  -0.00000
           Z1          -0.07642   0.00000   0.07310
           X2          -0.11714   0.00000   0.07077   0.12755
           Y2           0.00000  -0.00000  -0.00000  -0.00000  -0.00000
           Z2           0.07865  -0.00000  -0.07022  -0.07016   0.00000
           X3           0.00437  -0.00000   0.00565  -0.01041   0.00000
           Y3          -0.00000   0.00000   0.00000   0.00000   0.00000
           Z3          -0.00222   0.00000  -0.00288  -0.00061  -0.00000
           X4           0.00000   0.00000   0.00000   0.00000   0.00000
           Y4           0.00000   0.00000   0.00000   0.00000   0.00000
           Z4           0.00000   0.00000   0.00000   0.00000   0.00000
                          Z2        X3        Y3        Z3        X4
           Z2           0.07751
           X3          -0.00848   0.00604
           Y3          -0.00000   0.00000  -0.00000
           Z3          -0.00729   0.00283   0.00000   0.01016
           X4           0.00000   0.00000   0.00000   0.00000   1.00000
           Y4           0.00000   0.00000   0.00000   0.00000  -0.00000
           Z4           0.00000   0.00000   0.00000   0.00000   0.00000
                          Y4        Z4
           Y4           1.00000
           Z4          -0.00000   1.00000
 ITU=  0
     Eigenvalues ---    0.01526   0.04544   0.06502   0.27295   0.34643
     Eigenvalues ---    0.75000
 Angle between quadratic step and forces=  38.35 degrees.
 Linear search not attempted -- first point.
 B after Tr=     0.000000    0.000000    0.000000
         Rot=    1.000000    0.000000    0.000000    0.000000 Ang=   0.00 deg.
 Variable       Old X    -DE/DX   Delta X   Delta X   Delta X     New X
                                 (Linear)    (Quad)   (Total)
    X1       -0.00000   0.02821   0.00000   0.08961   0.08961   0.08961
    Y1        0.00000   0.00092   0.00000   0.00169   0.00169   0.00169
    Z1       -0.00000  -0.02168   0.00000  -0.01500  -0.01500  -0.01500
    X2       -3.34477  -0.02825   0.00000  -0.07251  -0.07251  -3.41727
    Y2        0.00000   0.00010   0.00000   0.00881   0.00881   0.00881
    Z2        2.58741   0.02254   0.00000   0.11149   0.11149   2.69890
    X3       -0.00000   0.00135   0.00000  -0.01758  -0.01758  -0.01758
    Y3        0.00000  -0.00570   0.00000  -0.02000  -0.02000  -0.02000
    Z3        9.15971  -0.00305   0.00000  -0.10691  -0.10691   9.05280
    X4        2.63963  -0.00131   0.00000   0.00048   0.00048   2.64011
    Y4       -9.18776   0.00468   0.00000   0.00951   0.00951  -9.17825
    Z4        6.80497   0.00219   0.00000   0.01042   0.01042   6.81539
         Item               Value     Threshold  Converged?
 Maximum Force            0.028251     0.000450     NO 
 RMS     Force            0.014846     0.000300     NO 
 Maximum Displacement     0.111489     0.001800     NO 
 RMS     Displacement     0.056540     0.001200     NO 
 Predicted change in Energy=-3.949782D-03
 GradGradGradGradGradGradGradGradGradGradGradGradGradGradGradGradGradGrad

 Leave Link  103 at Mon Aug 28 10:18:17 2023, MaxMem=  1610612736 cpu:               0.1 elap:               0.0
 (Enter /home/sekinelabo/g16/l9999.exe)
 1\1\GINC-SEKINELABO-XA7R-R37\Force\RB3LYP\6-311+G(d)\Na4\SEKINELABO\28
 -Aug-2023\0\\#p B3LYP/6-311+g(d) force\\\0,1\Na,0.,0.,0.\Na,-1.7699737
 293,0.,1.3691970592\Na,0.,0.,4.8471100649\Na,1.3968322025,-4.861951657
 3,3.6010370931\\Version=ES64L-G16RevB.01\State=1-A\HF=-649.1541208\RMS
 D=3.801e-09\RMSF=1.485e-02\Dipole=-0.0118656,0.2454051,-0.1369865\Quad
 rupole=0.5503289,1.2149,-1.7652289,-0.2059547,-3.6460304,5.0412631\PG=
 C01 [X(Na4)]\\@


 The lyf so short, the craft so long to lerne.
                             -- Chaucer
 Job cpu time:       0 days  0 hours  0 minutes 35.9 seconds.
 Elapsed time:       0 days  0 hours  0 minutes  2.4 seconds.
 File lengths (MBytes):  RWF=     10 Int=      0 D2E=      0 Chk=      2 Scr=      1
 Normal termination of Gaussian 16 at Mon Aug 28 10:18:17 2023.
