 Initial command:
 /home/sekinelabo/g16/l1.exe "/home/sekinelabo/g16temp/Gau-20140.inp" -scrdir="/home/sekinelabo/g16temp/"
 Entering Link 1 = /home/sekinelabo/g16/l1.exe PID=     22078.
  
 Copyright (c) 1988-2017, Gaussian, Inc.  All Rights Reserved.
  
 This is part of the Gaussian(R) 16 program.  It is based on
 the Gaussian(R) 09 system (copyright 2009, Gaussian, Inc.),
 the Gaussian(R) 03 system (copyright 2003, Gaussian, Inc.),
 the Gaussian(R) 98 system (copyright 1998, Gaussian, Inc.),
 the Gaussian(R) 94 system (copyright 1995, Gaussian, Inc.),
 the Gaussian 92(TM) system (copyright 1992, Gaussian, Inc.),
 the Gaussian 90(TM) system (copyright 1990, Gaussian, Inc.),
 the Gaussian 88(TM) system (copyright 1988, Gaussian, Inc.),
 the Gaussian 86(TM) system (copyright 1986, Carnegie Mellon
 University), and the Gaussian 82(TM) system (copyright 1983,
 Carnegie Mellon University). Gaussian is a federally registered
 trademark of Gaussian, Inc.
  
 This software contains proprietary and confidential information,
 including trade secrets, belonging to Gaussian, Inc.
  
 This software is provided under written license and may be
 used, copied, transmitted, or stored only in accord with that
 written license.
  
 The following legend is applicable only to US Government
 contracts under FAR:
  
                    RESTRICTED RIGHTS LEGEND
  
 Use, reproduction and disclosure by the US Government is
 subject to restrictions as set forth in subparagraphs (a)
 and (c) of the Commercial Computer Software - Restricted
 Rights clause in FAR 52.227-19.
  
 Gaussian, Inc.
 340 Quinnipiac St., Bldg. 40, Wallingford CT 06492
  
  
 ---------------------------------------------------------------
 Warning -- This program may not be used in any manner that
 competes with the business of Gaussian, Inc. or will provide
 assistance to any competitor of Gaussian, Inc.  The licensee
 of this program is prohibited from giving any competitor of
 Gaussian, Inc. access to this program.  By using this program,
 the user acknowledges that Gaussian, Inc. is engaged in the
 business of creating and licensing software in the field of
 computational chemistry and represents and warrants to the
 licensee that it is not a competitor of Gaussian, Inc. and that
 it will not use this program in any manner prohibited above.
 ---------------------------------------------------------------
  

 Cite this work as:
 Gaussian 16, Revision B.01,
 M. J. Frisch, G. W. Trucks, H. B. Schlegel, G. E. Scuseria, 
 M. A. Robb, J. R. Cheeseman, G. Scalmani, V. Barone, 
 G. A. Petersson, H. Nakatsuji, X. Li, M. Caricato, A. V. Marenich, 
 J. Bloino, B. G. Janesko, R. Gomperts, B. Mennucci, H. P. Hratchian, 
 J. V. Ortiz, A. F. Izmaylov, J. L. Sonnenberg, D. Williams-Young, 
 F. Ding, F. Lipparini, F. Egidi, J. Goings, B. Peng, A. Petrone, 
 T. Henderson, D. Ranasinghe, V. G. Zakrzewski, J. Gao, N. Rega, 
 G. Zheng, W. Liang, M. Hada, M. Ehara, K. Toyota, R. Fukuda, 
 J. Hasegawa, M. Ishida, T. Nakajima, Y. Honda, O. Kitao, H. Nakai, 
 T. Vreven, K. Throssell, J. A. Montgomery, Jr., J. E. Peralta, 
 F. Ogliaro, M. J. Bearpark, J. J. Heyd, E. N. Brothers, K. N. Kudin, 
 V. N. Staroverov, T. A. Keith, R. Kobayashi, J. Normand, 
 K. Raghavachari, A. P. Rendell, J. C. Burant, S. S. Iyengar, 
 J. Tomasi, M. Cossi, J. M. Millam, M. Klene, C. Adamo, R. Cammi, 
 J. W. Ochterski, R. L. Martin, K. Morokuma, O. Farkas, 
 J. B. Foresman, and D. J. Fox, Gaussian, Inc., Wallingford CT, 2016.
 
 ******************************************
 Gaussian 16:  ES64L-G16RevB.01 20-Dec-2017
                23-Aug-2023 
 ******************************************
 %NProcShared=16
 Will use up to   16 processors via shared memory.
 %mem=12GB
 %Chk=checkpoint.chk
 -------------------------
 #p B3LYP/6-311+g(d) force
 -------------------------
 1/10=7,30=1,38=1/1,3;
 2/12=2,17=6,18=5,40=1/2;
 3/5=4,6=6,7=11,11=2,25=1,30=1,71=1,74=-5/1,2,3;
 4//1;
 5/5=2,38=5/2;
 6/7=2,8=2,9=2,10=2,28=1/1;
 7/29=1/1,2,3,16;
 1/10=7,30=1/3;
 99//99;
 Leave Link    1 at Wed Aug 23 10:07:59 2023, MaxMem=  1610612736 cpu:               0.2 elap:               0.0
 (Enter /home/sekinelabo/g16/l101.exe)


 Symbolic Z-matrix:
 Charge =  0 Multiplicity = 1
 Na                    0.        0.        0. 
 Na                   -4.7338    0.        1.00702 
 Na                    0.        0.        3.35877 
 Na                    2.34085  -3.55912   4.51508 
 
 ITRead=  0  0  0  0
 MicOpt= -1 -1 -1 -1
 NAtoms=      4 NQM=        4 NQMF=       0 NMMI=      0 NMMIF=      0
                NMic=       0 NMicF=      0.
                    Isotopes and Nuclear Properties:
 (Nuclear quadrupole moments (NQMom) in fm**2, nuclear magnetic moments (NMagM)
  in nuclear magnetons)

  Atom         1           2           3           4
 IAtWgt=          23          23          23          23
 AtmWgt=  22.9897697  22.9897697  22.9897697  22.9897697
 NucSpn=           3           3           3           3
 AtZEff=  -0.0000000  -0.0000000  -0.0000000  -0.0000000
 NQMom=   10.4000000  10.4000000  10.4000000  10.4000000
 NMagM=    2.2175200   2.2175200   2.2175200   2.2175200
 AtZNuc=  11.0000000  11.0000000  11.0000000  11.0000000
 Leave Link  101 at Wed Aug 23 10:07:59 2023, MaxMem=  1610612736 cpu:               1.6 elap:               0.1
 (Enter /home/sekinelabo/g16/l103.exe)

 GradGradGradGradGradGradGradGradGradGradGradGradGradGradGradGradGradGrad
 Berny optimization.
 Initialization pass.
 Trust Radius=3.00D-01 FncErr=1.00D-07 GrdErr=1.00D-07 EigMax=2.50D+02 EigMin=1.00D-04
 Number of steps in this run=      2 maximum allowed number of steps=      2.
 GradGradGradGradGradGradGradGradGradGradGradGradGradGradGradGradGradGrad

 Leave Link  103 at Wed Aug 23 10:07:59 2023, MaxMem=  1610612736 cpu:               0.1 elap:               0.0
 (Enter /home/sekinelabo/g16/l202.exe)
                          Input orientation:                          
 ---------------------------------------------------------------------
 Center     Atomic      Atomic             Coordinates (Angstroms)
 Number     Number       Type             X           Y           Z
 ---------------------------------------------------------------------
      1         11           0        0.000000    0.000000    0.000000
      2         11           0       -4.733800    0.000000    1.007024
      3         11           0        0.000000    0.000000    3.358772
      4         11           0        2.340854   -3.559116    4.515079
 ---------------------------------------------------------------------
                    Distance matrix (angstroms):
                    1          2          3          4
     1  Na   0.000000
     2  Na   4.839727   0.000000
     3  Na   3.358772   5.285790   0.000000
     4  Na   6.207483   8.661667   4.414063   0.000000
 Stoichiometry    Na4
 Framework group  C1[X(Na4)]
 Deg. of freedom     6
 Full point group                 C1      NOp   1
 Largest Abelian subgroup         C1      NOp   1
 Largest concise Abelian subgroup C1      NOp   1
                         Standard orientation:                         
 ---------------------------------------------------------------------
 Center     Atomic      Atomic             Coordinates (Angstroms)
 Number     Number       Type             X           Y           Z
 ---------------------------------------------------------------------
      1         11           0       -0.940597    2.244011   -0.398313
      2         11           0       -4.166400   -1.363889   -0.383859
      3         11           0        0.634995   -0.094896    1.426069
      4         11           0        4.472003   -0.785227   -0.643897
 ---------------------------------------------------------------------
 Rotational constants (GHZ):           2.1393091           0.5309860           0.4761577
 Leave Link  202 at Wed Aug 23 10:07:59 2023, MaxMem=  1610612736 cpu:               0.0 elap:               0.0
 (Enter /home/sekinelabo/g16/l301.exe)
 Standard basis: 6-311+G(d) (5D, 7F)
 Ernie: Thresh=  0.10000D-02 Tol=  0.10000D-05 Strict=F.
 There are   124 symmetry adapted cartesian basis functions of A   symmetry.
 There are   120 symmetry adapted basis functions of A   symmetry.
   120 basis functions,   200 primitive gaussians,   124 cartesian basis functions
    22 alpha electrons       22 beta electrons
       nuclear repulsion energy        76.6209628391 Hartrees.
 IExCor=  402 DFT=T Ex+Corr=B3LYP ExCW=0 ScaHFX=  0.200000
 ScaDFX=  0.800000  0.720000  1.000000  0.810000 ScalE2=  1.000000  1.000000
 IRadAn=      5 IRanWt=     -1 IRanGd=            0 ICorTp=0 IEmpDi=  4
 NAtoms=    4 NActive=    4 NUniq=    4 SFac= 1.00D+00 NAtFMM=   60 NAOKFM=F Big=F
 Integral buffers will be    131072 words long.
 Raffenetti 2 integral format.
 Two-electron integral symmetry is turned on.
 Leave Link  301 at Wed Aug 23 10:07:59 2023, MaxMem=  1610612736 cpu:               0.3 elap:               0.0
 (Enter /home/sekinelabo/g16/l302.exe)
 NPDir=0 NMtPBC=     1 NCelOv=     1 NCel=       1 NClECP=     1 NCelD=      1
         NCelK=      1 NCelE2=     1 NClLst=     1 CellRange=     0.0.
 One-electron integrals computed using PRISM.
 One-electron integral symmetry used in STVInt
 NBasis=   120 RedAO= T EigKep=  1.64D-04  NBF=   120
 NBsUse=   120 1.00D-06 EigRej= -1.00D+00 NBFU=   120
 Precomputing XC quadrature grid using
 IXCGrd= 4 IRadAn=           5 IRanWt=          -1 IRanGd=           0 AccXCQ= 0.00D+00.
 Generated NRdTot=       0 NPtTot=           0 NUsed=           0 NTot=          32
 NSgBfM=   116   116   116   116   116 MxSgAt=     4 MxSgA2=     4.
 Leave Link  302 at Wed Aug 23 10:07:59 2023, MaxMem=  1610612736 cpu:               1.3 elap:               0.1
 (Enter /home/sekinelabo/g16/l303.exe)
 DipDrv:  MaxL=1.
 Leave Link  303 at Wed Aug 23 10:07:59 2023, MaxMem=  1610612736 cpu:               0.3 elap:               0.0
 (Enter /home/sekinelabo/g16/l401.exe)
 ExpMin= 7.60D-03 ExpMax= 3.62D+04 ExpMxC= 1.21D+03 IAcc=3 IRadAn=         5 AccDes= 0.00D+00
 Harris functional with IExCor=  402 and IRadAn=       5 diagonalized for initial guess.
 HarFok:  IExCor=  402 AccDes= 0.00D+00 IRadAn=         5 IDoV= 1 UseB2=F ITyADJ=14
 ICtDFT=  3500011 ScaDFX=  1.000000  1.000000  1.000000  1.000000
 FoFCou: FMM=F IPFlag=           0 FMFlag=      100000 FMFlg1=           0
         NFxFlg=           0 DoJE=T BraDBF=F KetDBF=T FulRan=T
         wScrn=  0.000000 ICntrl=       500 IOpCl=  0 I1Cent=   200000004 NGrid=           0
         NMat0=    1 NMatS0=      1 NMatT0=    0 NMatD0=    1 NMtDS0=    0 NMtDT0=    0
 Petite list used in FoFCou.
 Harris En= -649.049495768787    
 JPrj=0 DoOrth=F DoCkMO=F.
 Leave Link  401 at Wed Aug 23 10:07:59 2023, MaxMem=  1610612736 cpu:               2.0 elap:               0.1
 (Enter /home/sekinelabo/g16/l502.exe)
 Keep R1 ints in memory in canonical form, NReq=41581754.
 FoFCou: FMM=F IPFlag=           0 FMFlag=           0 FMFlg1=           0
         NFxFlg=           0 DoJE=F BraDBF=F KetDBF=F FulRan=T
         wScrn=  0.000000 ICntrl=       600 IOpCl=  0 I1Cent=           0 NGrid=           0
         NMat0=    1 NMatS0=   7260 NMatT0=    0 NMatD0=    1 NMtDS0=    0 NMtDT0=    0
 Symmetry not used in FoFCou.
 Two-electron integral symmetry not used.
 Closed shell SCF:
 Using DIIS extrapolation, IDIIS=  1040.
 NGot=  1610612736 LenX=  1584221388 LenY=  1584205571
 Requested convergence on RMS density matrix=1.00D-08 within 128 cycles.
 Requested convergence on MAX density matrix=1.00D-06.
 Requested convergence on             energy=1.00D-06.
 No special actions if energy rises.

 Cycle   1  Pass 1  IDiag  1:
 E= -649.156819979880    
 DIIS: error= 1.38D-02 at cycle   1 NSaved=   1.
 NSaved= 1 IEnMin= 1 EnMin= -649.156819979880     IErMin= 1 ErrMin= 1.38D-02
 ErrMax= 1.38D-02  0.00D+00 EMaxC= 1.00D-01 BMatC= 2.73D-02 BMatP= 2.73D-02
 IDIUse=3 WtCom= 8.62D-01 WtEn= 1.38D-01
 Coeff-Com:  0.100D+01
 Coeff-En:   0.100D+01
 Coeff:      0.100D+01
 Gap=     0.012 Goal=   None    Shift=    0.000
 GapD=    0.012 DampG=0.250 DampE=0.500 DampFc=0.2500 IDamp=-1.
 Damping current iteration by 2.50D-01
 RMSDP=6.64D-03 MaxDP=3.44D-01              OVMax= 6.04D-01

 Cycle   2  Pass 1  IDiag  1:
 E= -649.160743754448     Delta-E=       -0.003923774569 Rises=F Damp=T
 DIIS: error= 9.35D-03 at cycle   2 NSaved=   2.
 NSaved= 2 IEnMin= 2 EnMin= -649.160743754448     IErMin= 2 ErrMin= 9.35D-03
 ErrMax= 9.35D-03  0.00D+00 EMaxC= 1.00D-01 BMatC= 1.02D-02 BMatP= 2.73D-02
 IDIUse=3 WtCom= 9.06D-01 WtEn= 9.35D-02
 Coeff-Com: -0.983D+00 0.198D+01
 Coeff-En:   0.287D+00 0.713D+00
 Coeff:     -0.864D+00 0.186D+01
 Gap=    -0.007 Goal=   None    Shift=    0.000
 RMSDP=5.71D-03 MaxDP=3.21D-01 DE=-3.92D-03 OVMax= 7.62D-01

 Cycle   3  Pass 1  IDiag  1:
 E= -649.058276833758     Delta-E=        0.102466920690 Rises=F Damp=F
 DIIS: error= 1.19D-02 at cycle   3 NSaved=   3.
 NSaved= 3 IEnMin= 2 EnMin= -649.160743754448     IErMin= 2 ErrMin= 9.35D-03
 ErrMax= 1.19D-02  0.00D+00 EMaxC= 1.00D-01 BMatC= 9.84D-03 BMatP= 1.02D-02
 IDIUse=3 WtCom= 8.81D-01 WtEn= 1.19D-01
 Rare condition: small coef for last iteration:  0.000D+00
 Coeff-Com: -0.690D+00 0.131D+01 0.376D+00
 Coeff-En:   0.248D+00 0.734D+00 0.174D-01
 Coeff:     -0.690D+00 0.131D+01 0.376D+00
 Gap=     0.034 Goal=   None    Shift=    0.000
 RMSDP=7.90D-03 MaxDP=4.96D-01 DE= 1.02D-01 OVMax= 8.04D-01

 Cycle   4  Pass 1  IDiag  1:
 E= -649.120626308451     Delta-E=       -0.062349474693 Rises=F Damp=F
 DIIS: error= 1.04D-02 at cycle   4 NSaved=   4.
 NSaved= 4 IEnMin= 2 EnMin= -649.160743754448     IErMin= 2 ErrMin= 9.35D-03
 ErrMax= 1.04D-02  0.00D+00 EMaxC= 1.00D-01 BMatC= 5.52D-03 BMatP= 9.84D-03
 IDIUse=3 WtCom= 8.96D-01 WtEn= 1.04D-01
 EnCoef did   100 forward-backward iterations
 Coeff-Com: -0.156D+00 0.383D+00 0.361D+00 0.411D+00
 Coeff-En:   0.703D+00 0.280D-01 0.984D-04 0.269D+00
 Coeff:     -0.661D-01 0.346D+00 0.324D+00 0.396D+00
 Gap=     0.015 Goal=   None    Shift=    0.000
 RMSDP=3.55D-03 MaxDP=2.09D-01 DE=-6.23D-02 OVMax= 3.99D-01

 Cycle   5  Pass 1  IDiag  1:
 E= -649.174508570132     Delta-E=       -0.053882261681 Rises=F Damp=F
 DIIS: error= 9.06D-04 at cycle   5 NSaved=   5.
 NSaved= 5 IEnMin= 5 EnMin= -649.174508570132     IErMin= 5 ErrMin= 9.06D-04
 ErrMax= 9.06D-04  0.00D+00 EMaxC= 1.00D-01 BMatC= 1.53D-04 BMatP= 5.52D-03
 IDIUse=3 WtCom= 9.91D-01 WtEn= 9.06D-03
 Coeff-Com:  0.165D+00-0.206D+00-0.819D-02 0.832D-01 0.966D+00
 Coeff-En:   0.000D+00 0.000D+00 0.000D+00 0.000D+00 0.100D+01
 Coeff:      0.163D+00-0.204D+00-0.812D-02 0.825D-01 0.966D+00
 Gap=     0.026 Goal=   None    Shift=    0.000
 RMSDP=5.64D-04 MaxDP=1.41D-02 DE=-5.39D-02 OVMax= 4.77D-02

 Cycle   6  Pass 1  IDiag  1:
 E= -649.174686364004     Delta-E=       -0.000177793873 Rises=F Damp=F
 DIIS: error= 8.07D-04 at cycle   6 NSaved=   6.
 NSaved= 6 IEnMin= 6 EnMin= -649.174686364004     IErMin= 6 ErrMin= 8.07D-04
 ErrMax= 8.07D-04  0.00D+00 EMaxC= 1.00D-01 BMatC= 3.19D-05 BMatP= 1.53D-04
 IDIUse=3 WtCom= 9.92D-01 WtEn= 8.07D-03
 Coeff-Com:  0.607D-01-0.786D-01-0.153D-01 0.527D-02 0.368D+00 0.659D+00
 Coeff-En:   0.000D+00 0.000D+00 0.000D+00 0.000D+00 0.273D+00 0.727D+00
 Coeff:      0.602D-01-0.779D-01-0.152D-01 0.523D-02 0.368D+00 0.660D+00
 Gap=     0.026 Goal=   None    Shift=    0.000
 RMSDP=4.81D-04 MaxDP=2.61D-02 DE=-1.78D-04 OVMax= 4.06D-02

 Cycle   7  Pass 1  IDiag  1:
 E= -649.174722674373     Delta-E=       -0.000036310368 Rises=F Damp=F
 DIIS: error= 5.56D-04 at cycle   7 NSaved=   7.
 NSaved= 7 IEnMin= 7 EnMin= -649.174722674373     IErMin= 7 ErrMin= 5.56D-04
 ErrMax= 5.56D-04  0.00D+00 EMaxC= 1.00D-01 BMatC= 2.55D-05 BMatP= 3.19D-05
 IDIUse=3 WtCom= 9.94D-01 WtEn= 5.56D-03
 Coeff-Com:  0.991D-02-0.126D-01-0.117D-01 0.947D-02 0.104D+00 0.409D+00
 Coeff-Com:  0.492D+00
 Coeff-En:   0.000D+00 0.000D+00 0.000D+00 0.000D+00 0.000D+00 0.465D+00
 Coeff-En:   0.535D+00
 Coeff:      0.986D-02-0.125D-01-0.117D-01 0.942D-02 0.103D+00 0.410D+00
 Coeff:      0.492D+00
 Gap=     0.026 Goal=   None    Shift=    0.000
 RMSDP=1.38D-04 MaxDP=6.82D-03 DE=-3.63D-05 OVMax= 1.29D-02

 Cycle   8  Pass 1  IDiag  1:
 E= -649.174820103991     Delta-E=       -0.000097429618 Rises=F Damp=F
 DIIS: error= 5.48D-04 at cycle   8 NSaved=   8.
 NSaved= 8 IEnMin= 8 EnMin= -649.174820103991     IErMin= 8 ErrMin= 5.48D-04
 ErrMax= 5.48D-04  0.00D+00 EMaxC= 1.00D-01 BMatC= 9.87D-06 BMatP= 2.55D-05
 IDIUse=3 WtCom= 9.95D-01 WtEn= 5.48D-03
 Coeff-Com: -0.145D-01 0.202D-01-0.847D-02 0.169D-01-0.141D-01 0.160D+00
 Coeff-Com:  0.196D+00 0.644D+00
 Coeff-En:   0.000D+00 0.000D+00 0.000D+00 0.000D+00 0.000D+00 0.285D+00
 Coeff-En:   0.000D+00 0.715D+00
 Coeff:     -0.144D-01 0.201D-01-0.843D-02 0.168D-01-0.140D-01 0.161D+00
 Coeff:      0.195D+00 0.644D+00
 Gap=     0.026 Goal=   None    Shift=    0.000
 RMSDP=4.09D-05 MaxDP=2.42D-03 DE=-9.74D-05 OVMax= 4.36D-03

 Cycle   9  Pass 1  IDiag  1:
 E= -649.174860346878     Delta-E=       -0.000040242887 Rises=F Damp=F
 DIIS: error= 3.93D-04 at cycle   9 NSaved=   9.
 NSaved= 9 IEnMin= 9 EnMin= -649.174860346878     IErMin= 9 ErrMin= 3.93D-04
 ErrMax= 3.93D-04  0.00D+00 EMaxC= 1.00D-01 BMatC= 5.54D-06 BMatP= 9.87D-06
 IDIUse=3 WtCom= 9.96D-01 WtEn= 3.93D-03
 Coeff-Com: -0.188D-01 0.255D-01-0.228D-02 0.121D-01-0.537D-01-0.383D-01
 Coeff-Com: -0.175D+00-0.733D+00 0.198D+01
 Coeff-En:   0.000D+00 0.000D+00 0.000D+00 0.000D+00 0.000D+00 0.162D+00
 Coeff-En:   0.000D+00 0.000D+00 0.838D+00
 Coeff:     -0.187D-01 0.254D-01-0.227D-02 0.120D-01-0.535D-01-0.376D-01
 Coeff:     -0.175D+00-0.730D+00 0.198D+01
 Gap=     0.026 Goal=   None    Shift=    0.000
 RMSDP=4.63D-05 MaxDP=2.28D-03 DE=-4.02D-05 OVMax= 4.92D-03

 Cycle  10  Pass 1  IDiag  1:
 E= -649.174892375250     Delta-E=       -0.000032028372 Rises=F Damp=F
 DIIS: error= 2.22D-04 at cycle  10 NSaved=  10.
 NSaved=10 IEnMin=10 EnMin= -649.174892375250     IErMin=10 ErrMin= 2.22D-04
 ErrMax= 2.22D-04  0.00D+00 EMaxC= 1.00D-01 BMatC= 1.70D-06 BMatP= 5.54D-06
 IDIUse=3 WtCom= 9.98D-01 WtEn= 2.22D-03
 Coeff-Com: -0.155D-02 0.220D-02 0.538D-03 0.332D-02-0.500D-03-0.823D-04
 Coeff-Com: -0.959D-01-0.644D+00 0.358D+00 0.138D+01
 Coeff-En:   0.000D+00 0.000D+00 0.000D+00 0.000D+00 0.000D+00 0.000D+00
 Coeff-En:   0.000D+00 0.000D+00 0.000D+00 0.100D+01
 Coeff:     -0.154D-02 0.219D-02 0.537D-03 0.332D-02-0.499D-03-0.821D-04
 Coeff:     -0.956D-01-0.642D+00 0.357D+00 0.138D+01
 Gap=     0.026 Goal=   None    Shift=    0.000
 RMSDP=6.44D-05 MaxDP=3.63D-03 DE=-3.20D-05 OVMax= 7.34D-03

 Cycle  11  Pass 1  IDiag  1:
 E= -649.174907771252     Delta-E=       -0.000015396002 Rises=F Damp=F
 DIIS: error= 2.22D-05 at cycle  11 NSaved=  11.
 NSaved=11 IEnMin=11 EnMin= -649.174907771252     IErMin=11 ErrMin= 2.22D-05
 ErrMax= 2.22D-05  0.00D+00 EMaxC= 1.00D-01 BMatC= 2.28D-08 BMatP= 1.70D-06
 IDIUse=1 WtCom= 1.00D+00 WtEn= 0.00D+00
 Coeff-Com:  0.145D-02-0.192D-02 0.379D-04 0.377D-03 0.725D-02 0.131D-01
 Coeff-Com: -0.559D-03-0.118D+00-0.322D-01 0.405D+00 0.726D+00
 Coeff:      0.145D-02-0.192D-02 0.379D-04 0.377D-03 0.725D-02 0.131D-01
 Coeff:     -0.559D-03-0.118D+00-0.322D-01 0.405D+00 0.726D+00
 Gap=     0.026 Goal=   None    Shift=    0.000
 RMSDP=7.38D-06 MaxDP=2.66D-04 DE=-1.54D-05 OVMax= 5.41D-04

 Cycle  12  Pass 1  IDiag  1:
 E= -649.174907951537     Delta-E=       -0.000000180285 Rises=F Damp=F
 DIIS: error= 8.18D-06 at cycle  12 NSaved=  12.
 NSaved=12 IEnMin=12 EnMin= -649.174907951537     IErMin=12 ErrMin= 8.18D-06
 ErrMax= 8.18D-06  0.00D+00 EMaxC= 1.00D-01 BMatC= 3.15D-09 BMatP= 2.28D-08
 IDIUse=1 WtCom= 1.00D+00 WtEn= 0.00D+00
 Coeff-Com:  0.101D-02-0.136D-02 0.268D-04 0.460D-04 0.436D-02 0.639D-02
 Coeff-Com:  0.379D-02-0.303D-01-0.374D-01 0.157D+00 0.343D+00 0.553D+00
 Coeff:      0.101D-02-0.136D-02 0.268D-04 0.460D-04 0.436D-02 0.639D-02
 Coeff:      0.379D-02-0.303D-01-0.374D-01 0.157D+00 0.343D+00 0.553D+00
 Gap=     0.026 Goal=   None    Shift=    0.000
 RMSDP=1.96D-06 MaxDP=9.61D-05 DE=-1.80D-07 OVMax= 1.31D-04

 Cycle  13  Pass 1  IDiag  1:
 E= -649.174907963343     Delta-E=       -0.000000011806 Rises=F Damp=F
 DIIS: error= 5.64D-06 at cycle  13 NSaved=  13.
 NSaved=13 IEnMin=13 EnMin= -649.174907963343     IErMin=13 ErrMin= 5.64D-06
 ErrMax= 5.64D-06  0.00D+00 EMaxC= 1.00D-01 BMatC= 1.23D-09 BMatP= 3.15D-09
 IDIUse=1 WtCom= 1.00D+00 WtEn= 0.00D+00
 Coeff-Com:  0.604D-04-0.843D-04 0.373D-05-0.219D-04 0.214D-03-0.129D-02
 Coeff-Com: -0.941D-03 0.721D-02 0.126D-01-0.174D-01-0.119D-01 0.107D+00
 Coeff-Com:  0.904D+00
 Coeff:      0.604D-04-0.843D-04 0.373D-05-0.219D-04 0.214D-03-0.129D-02
 Coeff:     -0.941D-03 0.721D-02 0.126D-01-0.174D-01-0.119D-01 0.107D+00
 Coeff:      0.904D+00
 Gap=     0.026 Goal=   None    Shift=    0.000
 RMSDP=1.55D-06 MaxDP=7.49D-05 DE=-1.18D-08 OVMax= 1.33D-04

 Cycle  14  Pass 1  IDiag  1:
 E= -649.174907973067     Delta-E=       -0.000000009724 Rises=F Damp=F
 DIIS: error= 1.10D-06 at cycle  14 NSaved=  14.
 NSaved=14 IEnMin=14 EnMin= -649.174907973067     IErMin=14 ErrMin= 1.10D-06
 ErrMax= 1.10D-06  0.00D+00 EMaxC= 1.00D-01 BMatC= 5.40D-11 BMatP= 1.23D-09
 IDIUse=1 WtCom= 1.00D+00 WtEn= 0.00D+00
 Coeff-Com: -0.416D-04 0.543D-04-0.110D-05-0.879D-06-0.132D-03-0.591D-03
 Coeff-Com: -0.855D-03 0.329D-03 0.970D-02-0.958D-02-0.294D-01 0.119D-02
 Coeff-Com:  0.159D+00 0.870D+00
 Coeff:     -0.416D-04 0.543D-04-0.110D-05-0.879D-06-0.132D-03-0.591D-03
 Coeff:     -0.855D-03 0.329D-03 0.970D-02-0.958D-02-0.294D-01 0.119D-02
 Coeff:      0.159D+00 0.870D+00
 Gap=     0.026 Goal=   None    Shift=    0.000
 RMSDP=4.47D-07 MaxDP=1.97D-05 DE=-9.72D-09 OVMax= 3.76D-05

 Cycle  15  Pass 1  IDiag  1:
 E= -649.174907973524     Delta-E=       -0.000000000457 Rises=F Damp=F
 DIIS: error= 6.77D-08 at cycle  15 NSaved=  15.
 NSaved=15 IEnMin=15 EnMin= -649.174907973524     IErMin=15 ErrMin= 6.77D-08
 ErrMax= 6.77D-08  0.00D+00 EMaxC= 1.00D-01 BMatC= 4.62D-13 BMatP= 5.40D-11
 IDIUse=1 WtCom= 1.00D+00 WtEn= 0.00D+00
 Coeff-Com: -0.617D-05 0.798D-05 0.418D-06 0.168D-05-0.292D-04 0.581D-05
 Coeff-Com: -0.563D-04-0.107D-02 0.529D-03 0.392D-03-0.348D-02-0.114D-01
 Coeff-Com: -0.451D-01 0.724D-01 0.988D+00
 Coeff:     -0.617D-05 0.798D-05 0.418D-06 0.168D-05-0.292D-04 0.581D-05
 Coeff:     -0.563D-04-0.107D-02 0.529D-03 0.392D-03-0.348D-02-0.114D-01
 Coeff:     -0.451D-01 0.724D-01 0.988D+00
 Gap=     0.026 Goal=   None    Shift=    0.000
 RMSDP=9.33D-08 MaxDP=2.45D-06 DE=-4.57D-10 OVMax= 6.01D-06

 Cycle  16  Pass 1  IDiag  1:
 E= -649.174907973531     Delta-E=       -0.000000000008 Rises=F Damp=F
 DIIS: error= 1.13D-08 at cycle  16 NSaved=  16.
 NSaved=16 IEnMin=16 EnMin= -649.174907973531     IErMin=16 ErrMin= 1.13D-08
 ErrMax= 1.13D-08  0.00D+00 EMaxC= 1.00D-01 BMatC= 6.33D-15 BMatP= 4.62D-13
 IDIUse=1 WtCom= 1.00D+00 WtEn= 0.00D+00
 Coeff-Com:  0.233D-06-0.277D-06 0.178D-06 0.204D-06-0.197D-05 0.113D-04
 Coeff-Com:  0.223D-04-0.881D-05-0.302D-03 0.298D-03 0.718D-03-0.141D-04
 Coeff-Com: -0.552D-02-0.297D-01-0.202D-01 0.105D+01
 Coeff:      0.233D-06-0.277D-06 0.178D-06 0.204D-06-0.197D-05 0.113D-04
 Coeff:      0.223D-04-0.881D-05-0.302D-03 0.298D-03 0.718D-03-0.141D-04
 Coeff:     -0.552D-02-0.297D-01-0.202D-01 0.105D+01
 Gap=     0.026 Goal=   None    Shift=    0.000
 RMSDP=1.75D-08 MaxDP=4.64D-07 DE=-7.62D-12 OVMax= 1.12D-06

 Cycle  17  Pass 1  IDiag  1:
 E= -649.174907973529     Delta-E=        0.000000000002 Rises=F Damp=F
 DIIS: error= 1.32D-08 at cycle  17 NSaved=  17.
 NSaved=17 IEnMin=16 EnMin= -649.174907973531     IErMin=16 ErrMin= 1.13D-08
 ErrMax= 1.32D-08  0.00D+00 EMaxC= 1.00D-01 BMatC= 5.59D-15 BMatP= 6.33D-15
 IDIUse=1 WtCom= 1.00D+00 WtEn= 0.00D+00
 Large coefficients: NSaved= 17 BigCof=    0.00 CofMax=   10.00 Det=-4.31D-15
 Inversion failed.  Reducing to 16 matrices.
 Large coefficients: NSaved= 16 BigCof=    0.00 CofMax=   10.00 Det=-4.49D-15
 Inversion failed.  Reducing to 15 matrices.
 Coeff-Com:  0.360D-06-0.474D-06 0.117D-05 0.663D-05 0.725D-05 0.346D-04
 Coeff-Com: -0.108D-03 0.107D-03 0.338D-03 0.368D-03-0.631D-03-0.106D-01
 Coeff-Com: -0.326D-01 0.301D+00 0.743D+00
 Coeff:      0.360D-06-0.474D-06 0.117D-05 0.663D-05 0.725D-05 0.346D-04
 Coeff:     -0.108D-03 0.107D-03 0.338D-03 0.368D-03-0.631D-03-0.106D-01
 Coeff:     -0.326D-01 0.301D+00 0.743D+00
 Gap=     0.026 Goal=   None    Shift=    0.000
 RMSDP=4.22D-09 MaxDP=2.13D-07 DE= 2.27D-12 OVMax= 3.92D-07

 SCF Done:  E(RB3LYP) =  -649.174907974     A.U. after   17 cycles
            NFock= 17  Conv=0.42D-08     -V/T= 2.0030
 KE= 6.472224598578D+02 PE=-1.712140951139D+03 EE= 3.391226204685D+02
 Leave Link  502 at Wed Aug 23 10:08:01 2023, MaxMem=  1610612736 cpu:              24.0 elap:               1.7
 (Enter /home/sekinelabo/g16/l601.exe)
 Copying SCF densities to generalized density rwf, IOpCl= 0 IROHF=0.

 **********************************************************************

            Population analysis using the SCF Density.

 **********************************************************************

 Orbital symmetries:
       Occupied  (A) (A) (A) (A) (A) (A) (A) (A) (A) (A) (A) (A)
                 (A) (A) (A) (A) (A) (A) (A) (A) (A) (A)
       Virtual   (A) (A) (A) (A) (A) (A) (A) (A) (A) (A) (A) (A)
                 (A) (A) (A) (A) (A) (A) (A) (A) (A) (A) (A) (A)
                 (A) (A) (A) (A) (A) (A) (A) (A) (A) (A) (A) (A)
                 (A) (A) (A) (A) (A) (A) (A) (A) (A) (A) (A) (A)
                 (A) (A) (A) (A) (A) (A) (A) (A) (A) (A) (A) (A)
                 (A) (A) (A) (A) (A) (A) (A) (A) (A) (A) (A) (A)
                 (A) (A) (A) (A) (A) (A) (A) (A) (A) (A) (A) (A)
                 (A) (A) (A) (A) (A) (A) (A) (A) (A) (A) (A) (A)
                 (A) (A)
 The electronic state is 1-A.
 Alpha  occ. eigenvalues --  -38.46145 -38.45659 -38.45145 -38.44841  -2.21869
 Alpha  occ. eigenvalues --   -2.21342  -2.20880  -2.20534  -1.15548  -1.15533
 Alpha  occ. eigenvalues --   -1.15498  -1.15023  -1.15022  -1.14977  -1.14571
 Alpha  occ. eigenvalues --   -1.14558  -1.14491  -1.14214  -1.14213  -1.14168
 Alpha  occ. eigenvalues --   -0.13982  -0.10759
 Alpha virt. eigenvalues --   -0.08152  -0.05910  -0.02891  -0.02760  -0.01951
 Alpha virt. eigenvalues --   -0.01472  -0.01066  -0.00793  -0.00601  -0.00060
 Alpha virt. eigenvalues --    0.00325   0.00543   0.00786   0.01078   0.01290
 Alpha virt. eigenvalues --    0.01379   0.01577   0.01714   0.01793   0.01898
 Alpha virt. eigenvalues --    0.01987   0.02123   0.02287   0.02358   0.02839
 Alpha virt. eigenvalues --    0.02950   0.03145   0.03431   0.03947   0.04334
 Alpha virt. eigenvalues --    0.06661   0.07034   0.07541   0.07738   0.08072
 Alpha virt. eigenvalues --    0.08282   0.08333   0.08425   0.08816   0.09670
 Alpha virt. eigenvalues --    0.09926   0.10574   0.11024   0.12283   0.12578
 Alpha virt. eigenvalues --    0.14091   0.29319   0.29472   0.30286   0.32661
 Alpha virt. eigenvalues --    0.32975   0.33822   0.34390   0.34753   0.34919
 Alpha virt. eigenvalues --    0.35368   0.35398   0.35624   0.35938   0.36017
 Alpha virt. eigenvalues --    0.36870   0.38159   0.39780   0.42290   0.42725
 Alpha virt. eigenvalues --    0.43047   0.43251   0.43391   0.43992   0.44231
 Alpha virt. eigenvalues --    0.45066   0.45637   0.46838   0.47337   0.47784
 Alpha virt. eigenvalues --    0.48185   0.50754   0.60565   2.01282   2.02654
 Alpha virt. eigenvalues --    2.04217   2.11281   4.41125   4.42548   4.43343
 Alpha virt. eigenvalues --    4.43434   4.43554   4.43846   4.44083   4.44504
 Alpha virt. eigenvalues --    4.45047   4.45529   4.48123   4.52183  96.20475
 Alpha virt. eigenvalues --   96.21934  96.23820  96.32391
          Condensed to atoms (all electrons):
               1          2          3          4
     1  Na  10.615181   0.145964   0.223375  -0.075495
     2  Na   0.145964  10.992678  -0.089882  -0.072854
     3  Na   0.223375  -0.089882  10.800429   0.199901
     4  Na  -0.075495  -0.072854   0.199901  10.929695
 Mulliken charges:
               1
     1  Na   0.090975
     2  Na   0.024095
     3  Na  -0.133823
     4  Na   0.018753
 Sum of Mulliken charges =  -0.00000
 Mulliken charges with hydrogens summed into heavy atoms:
               1
     1  Na   0.090975
     2  Na   0.024095
     3  Na  -0.133823
     4  Na   0.018753
 Electronic spatial extent (au):  <R**2>=           2010.8585
 Charge=             -0.0000 electrons
 Dipole moment (field-independent basis, Debye):
    X=             -0.7768    Y=              0.7002    Z=             -0.1604  Tot=              1.0581
 Quadrupole moment (field-independent basis, Debye-Ang):
   XX=            -43.7320   YY=            -35.2408   ZZ=            -40.9323
   XY=              0.8438   XZ=             -1.6601   YZ=             -3.0427
 Traceless Quadrupole moment (field-independent basis, Debye-Ang):
   XX=             -3.7636   YY=              4.7276   ZZ=             -0.9640
   XY=              0.8438   XZ=             -1.6601   YZ=             -3.0427
 Octapole moment (field-independent basis, Debye-Ang**2):
  XXX=              6.2453  YYY=             31.8414  ZZZ=              8.6319  XYY=            -16.7474
  XXY=            -20.4019  XXZ=            -18.5332  XZZ=              1.8193  YZZ=              2.1727
  YYZ=             -7.7304  XYZ=              2.6404
 Hexadecapole moment (field-independent basis, Debye-Ang**3):
 XXXX=          -2632.6206 YYYY=           -542.6149 ZZZZ=           -332.5509 XXXY=             45.2823
 XXXZ=            -68.9377 YYYX=            -11.4605 YYYZ=            -29.6113 ZZZX=             -6.8986
 ZZZY=            -17.4251 XXYY=           -558.8165 XXZZ=           -545.1515 YYZZ=           -156.9110
 XXYZ=             14.4009 YYXZ=              2.5292 ZZXY=             -0.8734
 N-N= 7.662096283906D+01 E-N=-1.712140950589D+03  KE= 6.472224598578D+02
 No NMR shielding tensors so no spin-rotation constants.
 Leave Link  601 at Wed Aug 23 10:08:01 2023, MaxMem=  1610612736 cpu:               0.9 elap:               0.1
 (Enter /home/sekinelabo/g16/l701.exe)
 ... and contract with generalized density number  0.
 Compute integral first derivatives.
 Leave Link  701 at Wed Aug 23 10:08:01 2023, MaxMem=  1610612736 cpu:               1.2 elap:               0.1
 (Enter /home/sekinelabo/g16/l702.exe)
 L702 exits ... SP integral derivatives will be done elsewhere.
 Leave Link  702 at Wed Aug 23 10:08:01 2023, MaxMem=  1610612736 cpu:               0.3 elap:               0.0
 (Enter /home/sekinelabo/g16/l703.exe)
 Integral derivatives from FoFJK, PRISM(SPDF).
 Compute integral first derivatives, UseDBF=F ICtDFT=           0.
 Calling FoFJK, ICntrl=      2127 FMM=F ISym2X=0 I1Cent= 0 IOpClX= 0 NMat=1 NMatS=1 NMatT=0.
 FoFJK:  IHMeth= 1 ICntrl=    2127 DoSepK=F KAlg= 0 I1Cent=           0 FoldK=F
 IRaf=         0 NMat=       1 IRICut=       1 DoRegI=T DoRafI=F ISym2E= 0 IDoP0=0 IntGTp=1.
 FoFCou: FMM=F IPFlag=           0 FMFlag=      100000 FMFlg1=         800
         NFxFlg=           0 DoJE=F BraDBF=F KetDBF=F FulRan=T
         wScrn=  0.000000 ICntrl=      2127 IOpCl=  0 I1Cent=           0 NGrid=           0
         NMat0=    1 NMatS0=      1 NMatT0=    0 NMatD0=    1 NMtDS0=    0 NMtDT0=    0
 Symmetry not used in FoFCou.
 Leave Link  703 at Wed Aug 23 10:08:02 2023, MaxMem=  1610612736 cpu:               5.8 elap:               0.4
 (Enter /home/sekinelabo/g16/l716.exe)
 Dipole        =-3.05628399D-01 2.75488069D-01-6.31021965D-02
 ***** Axes restored to original set *****
 -------------------------------------------------------------------
 Center     Atomic                   Forces (Hartrees/Bohr)
 Number     Number              X              Y              Z
 -------------------------------------------------------------------
      1       11          -0.004843510   -0.000404237    0.002844241
      2       11           0.005528204    0.000347741   -0.000878227
      3       11           0.002066051   -0.004828832   -0.000226761
      4       11          -0.002750745    0.004885328   -0.001739253
 -------------------------------------------------------------------
 Cartesian Forces:  Max     0.005528204 RMS     0.003230861
 Z-matrix is all fixed cartesians, so copy forces.
 Force constants in Cartesian coordinates: 
                1             2             3             4             5 
      1  0.000000D+00
      2  0.000000D+00  0.000000D+00
      3  0.000000D+00  0.000000D+00  0.221296D-01
      4  0.000000D+00  0.000000D+00  0.000000D+00  0.100000D+01
      5  0.000000D+00  0.000000D+00  0.000000D+00  0.000000D+00  0.100000D+01
      6  0.000000D+00  0.000000D+00  0.000000D+00  0.000000D+00  0.000000D+00
      7  0.000000D+00  0.000000D+00  0.000000D+00  0.000000D+00  0.000000D+00
      8  0.000000D+00  0.000000D+00  0.000000D+00  0.000000D+00  0.000000D+00
      9  0.000000D+00  0.000000D+00 -0.221296D-01  0.000000D+00  0.000000D+00
     10  0.000000D+00  0.000000D+00  0.000000D+00  0.000000D+00  0.000000D+00
     11  0.000000D+00  0.000000D+00  0.000000D+00  0.000000D+00  0.000000D+00
     12  0.000000D+00  0.000000D+00  0.000000D+00  0.000000D+00  0.000000D+00
                6             7             8             9            10 
      6  0.100000D+01
      7  0.000000D+00  0.000000D+00
      8  0.000000D+00  0.000000D+00  0.000000D+00
      9  0.000000D+00  0.000000D+00  0.000000D+00  0.221296D-01
     10  0.000000D+00  0.000000D+00  0.000000D+00  0.000000D+00  0.100000D+01
     11  0.000000D+00  0.000000D+00  0.000000D+00  0.000000D+00  0.000000D+00
     12  0.000000D+00  0.000000D+00  0.000000D+00  0.000000D+00  0.000000D+00
               11            12 
     11  0.100000D+01
     12  0.000000D+00  0.100000D+01
 Leave Link  716 at Wed Aug 23 10:08:02 2023, MaxMem=  1610612736 cpu:               0.3 elap:               0.0
 (Enter /home/sekinelabo/g16/l103.exe)

 GradGradGradGradGradGradGradGradGradGradGradGradGradGradGradGradGradGrad
 Berny optimization.
 Search for a local minimum.
 Step number   1 out of a maximum of    2
 All quantities printed in internal units (Hartrees-Bohrs-Radians)
 Second derivative matrix not updated -- first step.
 The second derivative matrix:
                          X1        Y1        Z1        X2        Y2
           X1          -0.00000
           Y1           0.00000   0.00000
           Z1           0.00000  -0.00000   0.02213
           X2           0.00000   0.00000   0.00000   1.00000
           Y2           0.00000   0.00000   0.00000   0.00000   1.00000
           Z2           0.00000   0.00000   0.00000   0.00000   0.00000
           X3           0.00000  -0.00000   0.00000   0.00000   0.00000
           Y3          -0.00000  -0.00000   0.00000   0.00000   0.00000
           Z3          -0.00000   0.00000  -0.02213   0.00000   0.00000
           X4           0.00000   0.00000   0.00000   0.00000   0.00000
           Y4           0.00000   0.00000   0.00000   0.00000   0.00000
           Z4           0.00000   0.00000   0.00000   0.00000   0.00000
                          Z2        X3        Y3        Z3        X4
           Z2           1.00000
           X3           0.00000  -0.00000
           Y3           0.00000   0.00000   0.00000
           Z3           0.00000   0.00000  -0.00000   0.02213
           X4           0.00000   0.00000   0.00000   0.00000   1.00000
           Y4           0.00000   0.00000   0.00000   0.00000   0.00000
           Z4           0.00000   0.00000   0.00000   0.00000   0.00000
                          Y4        Z4
           Y4           1.00000
           Z4           0.00000   1.00000
 ITU=  0
     Eigenvalues ---    0.04426   0.12433   0.23219   0.50000   0.56899
     Eigenvalues ---    1.00000
 Angle between quadratic step and forces=  47.52 degrees.
 Linear search not attempted -- first point.
 B after Tr=     0.000000    0.000000    0.000000
         Rot=    1.000000    0.000000    0.000000    0.000000 Ang=   0.00 deg.
 Variable       Old X    -DE/DX   Delta X   Delta X   Delta X     New X
                                 (Linear)    (Quad)   (Total)
    X1       -0.00000  -0.00484   0.00000  -0.02932  -0.02932  -0.02932
    Y1       -0.00000  -0.00040   0.00000   0.01018   0.01018   0.01018
    Z1        0.00000   0.00284   0.00000   0.03743   0.03743   0.03743
    X2       -8.94558   0.00553   0.00000   0.00830   0.00830  -8.93728
    Y2       -0.00000   0.00035   0.00000   0.00101   0.00101   0.00101
    Z2        1.90300  -0.00088   0.00000  -0.01193  -0.01193   1.89107
    X3       -0.00000   0.00207   0.00000   0.02741   0.02741   0.02741
    Y3       -0.00000  -0.00483   0.00000  -0.02296  -0.02296  -0.02296
    Z3        6.34716  -0.00023   0.00000  -0.03196  -0.03196   6.31520
    X4        4.42357  -0.00275   0.00000  -0.00639  -0.00639   4.41718
    Y4       -6.72575   0.00489   0.00000   0.01177   0.01177  -6.71399
    Z4        8.53226  -0.00174   0.00000   0.00646   0.00646   8.53872
         Item               Value     Threshold  Converged?
 Maximum Force            0.005528     0.000450     NO 
 RMS     Force            0.003231     0.000300     NO 
 Maximum Displacement     0.037428     0.001800     NO 
 RMS     Displacement     0.020610     0.001200     NO 
 Predicted change in Energy=-2.698195D-04
 GradGradGradGradGradGradGradGradGradGradGradGradGradGradGradGradGradGrad

 Leave Link  103 at Wed Aug 23 10:08:02 2023, MaxMem=  1610612736 cpu:               0.1 elap:               0.0
 (Enter /home/sekinelabo/g16/l9999.exe)
 1\1\GINC-SEKINELABO-XA7R-R37\Force\RB3LYP\6-311+G(d)\Na4\SEKINELABO\23
 -Aug-2023\0\\#p B3LYP/6-311+g(d) force\\\0,1\Na,0.,0.,0.\Na,-4.7337996
 838,0.,1.0070236507\Na,0.,0.,3.3587717779\Na,2.3408540148,-3.559116132
 2,4.515078629\\Version=ES64L-G16RevB.01\State=1-A\HF=-649.174908\RMSD=
 4.215e-09\RMSF=3.231e-03\Dipole=-0.07671,0.1757331,-0.3694831\Quadrupo
 le=-0.3192666,-1.2303786,1.5496452,-0.3367878,-3.8988612,0.2450349\PG=
 C01 [X(Na4)]\\@


 CHILDREN YOU ARE VERY LITTLE,
 AND YOUR BONES ARE VERY BRITTLE;
 IF YOU WOULD GROW GREAT AND STATELY
 YOU MUST TRY TO WALK SEDATELY.
 YOU MUST STILL BE BRIGHT AND QUIET,
 AND CONTENT WITH SIMPLE DIET;
 AND REMAIN, THROUGH ALL BEWILD'RING
 INNOCENT AND HONEST CHILDREN.
     -- A CHILD'S GARDEN OF VERSE,
        ROBERT LOUIS STEVENSON
 Job cpu time:       0 days  0 hours  0 minutes 38.8 seconds.
 Elapsed time:       0 days  0 hours  0 minutes  2.7 seconds.
 File lengths (MBytes):  RWF=     10 Int=      0 D2E=      0 Chk=      2 Scr=      1
 Normal termination of Gaussian 16 at Wed Aug 23 10:08:02 2023.
 Initial command:
 /home/sekinelabo/g16/l1.exe "/home/sekinelabo/g16temp/Gau-2966229.inp" -scrdir="/home/sekinelabo/g16temp/"
 Entering Link 1 = /home/sekinelabo/g16/l1.exe PID=   2968167.
  
 Copyright (c) 1988-2017, Gaussian, Inc.  All Rights Reserved.
  
 This is part of the Gaussian(R) 16 program.  It is based on
 the Gaussian(R) 09 system (copyright 2009, Gaussian, Inc.),
 the Gaussian(R) 03 system (copyright 2003, Gaussian, Inc.),
 the Gaussian(R) 98 system (copyright 1998, Gaussian, Inc.),
 the Gaussian(R) 94 system (copyright 1995, Gaussian, Inc.),
 the Gaussian 92(TM) system (copyright 1992, Gaussian, Inc.),
 the Gaussian 90(TM) system (copyright 1990, Gaussian, Inc.),
 the Gaussian 88(TM) system (copyright 1988, Gaussian, Inc.),
 the Gaussian 86(TM) system (copyright 1986, Carnegie Mellon
 University), and the Gaussian 82(TM) system (copyright 1983,
 Carnegie Mellon University). Gaussian is a federally registered
 trademark of Gaussian, Inc.
  
 This software contains proprietary and confidential information,
 including trade secrets, belonging to Gaussian, Inc.
  
 This software is provided under written license and may be
 used, copied, transmitted, or stored only in accord with that
 written license.
  
 The following legend is applicable only to US Government
 contracts under FAR:
  
                    RESTRICTED RIGHTS LEGEND
  
 Use, reproduction and disclosure by the US Government is
 subject to restrictions as set forth in subparagraphs (a)
 and (c) of the Commercial Computer Software - Restricted
 Rights clause in FAR 52.227-19.
  
 Gaussian, Inc.
 340 Quinnipiac St., Bldg. 40, Wallingford CT 06492
  
  
 ---------------------------------------------------------------
 Warning -- This program may not be used in any manner that
 competes with the business of Gaussian, Inc. or will provide
 assistance to any competitor of Gaussian, Inc.  The licensee
 of this program is prohibited from giving any competitor of
 Gaussian, Inc. access to this program.  By using this program,
 the user acknowledges that Gaussian, Inc. is engaged in the
 business of creating and licensing software in the field of
 computational chemistry and represents and warrants to the
 licensee that it is not a competitor of Gaussian, Inc. and that
 it will not use this program in any manner prohibited above.
 ---------------------------------------------------------------
  

 Cite this work as:
 Gaussian 16, Revision B.01,
 M. J. Frisch, G. W. Trucks, H. B. Schlegel, G. E. Scuseria, 
 M. A. Robb, J. R. Cheeseman, G. Scalmani, V. Barone, 
 G. A. Petersson, H. Nakatsuji, X. Li, M. Caricato, A. V. Marenich, 
 J. Bloino, B. G. Janesko, R. Gomperts, B. Mennucci, H. P. Hratchian, 
 J. V. Ortiz, A. F. Izmaylov, J. L. Sonnenberg, D. Williams-Young, 
 F. Ding, F. Lipparini, F. Egidi, J. Goings, B. Peng, A. Petrone, 
 T. Henderson, D. Ranasinghe, V. G. Zakrzewski, J. Gao, N. Rega, 
 G. Zheng, W. Liang, M. Hada, M. Ehara, K. Toyota, R. Fukuda, 
 J. Hasegawa, M. Ishida, T. Nakajima, Y. Honda, O. Kitao, H. Nakai, 
 T. Vreven, K. Throssell, J. A. Montgomery, Jr., J. E. Peralta, 
 F. Ogliaro, M. J. Bearpark, J. J. Heyd, E. N. Brothers, K. N. Kudin, 
 V. N. Staroverov, T. A. Keith, R. Kobayashi, J. Normand, 
 K. Raghavachari, A. P. Rendell, J. C. Burant, S. S. Iyengar, 
 J. Tomasi, M. Cossi, J. M. Millam, M. Klene, C. Adamo, R. Cammi, 
 J. W. Ochterski, R. L. Martin, K. Morokuma, O. Farkas, 
 J. B. Foresman, and D. J. Fox, Gaussian, Inc., Wallingford CT, 2016.
 
 ******************************************
 Gaussian 16:  ES64L-G16RevB.01 20-Dec-2017
                28-Aug-2023 
 ******************************************
 %NProcShared=16
 Will use up to   16 processors via shared memory.
 %mem=12GB
 %Chk=checkpoint.chk
 -------------------------
 #p B3LYP/6-311+g(d) force
 -------------------------
 1/10=7,30=1,38=1/1,3;
 2/12=2,17=6,18=5,40=1/2;
 3/5=4,6=6,7=11,11=2,25=1,30=1,71=1,74=-5/1,2,3;
 4//1;
 5/5=2,38=5/2;
 6/7=2,8=2,9=2,10=2,28=1/1;
 7/29=1/1,2,3,16;
 1/10=7,30=1/3;
 99//99;
 Leave Link    1 at Mon Aug 28 10:18:19 2023, MaxMem=  1610612736 cpu:               0.2 elap:               0.0
 (Enter /home/sekinelabo/g16/l101.exe)


 Symbolic Z-matrix:
 Charge =  0 Multiplicity = 1
 Na                    0.        0.        0. 
 Na                   -3.08055   0.        0.71387 
 Na                    0.        0.        4.69502 
 Na                    2.90095  -4.30575   5.14999 
 
 ITRead=  0  0  0  0
 MicOpt= -1 -1 -1 -1
 NAtoms=      4 NQM=        4 NQMF=       0 NMMI=      0 NMMIF=      0
                NMic=       0 NMicF=      0.
                    Isotopes and Nuclear Properties:
 (Nuclear quadrupole moments (NQMom) in fm**2, nuclear magnetic moments (NMagM)
  in nuclear magnetons)

  Atom         1           2           3           4
 IAtWgt=          23          23          23          23
 AtmWgt=  22.9897697  22.9897697  22.9897697  22.9897697
 NucSpn=           3           3           3           3
 AtZEff=  -0.0000000  -0.0000000  -0.0000000  -0.0000000
 NQMom=   10.4000000  10.4000000  10.4000000  10.4000000
 NMagM=    2.2175200   2.2175200   2.2175200   2.2175200
 AtZNuc=  11.0000000  11.0000000  11.0000000  11.0000000
 Leave Link  101 at Mon Aug 28 10:18:19 2023, MaxMem=  1610612736 cpu:               1.8 elap:               0.1
 (Enter /home/sekinelabo/g16/l103.exe)

 GradGradGradGradGradGradGradGradGradGradGradGradGradGradGradGradGradGrad
 Berny optimization.
 Initialization pass.
 Trust Radius=3.00D-01 FncErr=1.00D-07 GrdErr=1.00D-07 EigMax=2.50D+02 EigMin=1.00D-04
 Number of steps in this run=      2 maximum allowed number of steps=      2.
 GradGradGradGradGradGradGradGradGradGradGradGradGradGradGradGradGradGrad

 Leave Link  103 at Mon Aug 28 10:18:19 2023, MaxMem=  1610612736 cpu:               0.2 elap:               0.0
 (Enter /home/sekinelabo/g16/l202.exe)
                          Input orientation:                          
 ---------------------------------------------------------------------
 Center     Atomic      Atomic             Coordinates (Angstroms)
 Number     Number       Type             X           Y           Z
 ---------------------------------------------------------------------
      1         11           0        0.000000    0.000000    0.000000
      2         11           0       -3.080549    0.000000    0.713867
      3         11           0        0.000000    0.000000    4.695024
      4         11           0        2.900954   -4.305747    5.149989
 ---------------------------------------------------------------------
                    Distance matrix (angstroms):
                    1          2          3          4
     1  Na   0.000000
     2  Na   3.162181   0.000000
     3  Na   4.695024   5.033825   0.000000
     4  Na   7.312823   8.602152   5.211716   0.000000
 Stoichiometry    Na4
 Framework group  C1[X(Na4)]
 Deg. of freedom     6
 Full point group                 C1      NOp   1
 Largest Abelian subgroup         C1      NOp   1
 Largest concise Abelian subgroup C1      NOp   1
                         Standard orientation:                         
 ---------------------------------------------------------------------
 Center     Atomic      Atomic             Coordinates (Angstroms)
 Number     Number       Type             X           Y           Z
 ---------------------------------------------------------------------
      1         11           0       -2.166876   -1.581871   -0.964980
      2         11           0       -3.557023    0.307319    1.155830
      3         11           0        0.773482    2.069494   -0.709877
      4         11           0        4.950416   -0.794942    0.519027
 ---------------------------------------------------------------------
 Rotational constants (GHZ):           2.0832917           0.4832113           0.4399710
 Leave Link  202 at Mon Aug 28 10:18:19 2023, MaxMem=  1610612736 cpu:               0.0 elap:               0.0
 (Enter /home/sekinelabo/g16/l301.exe)
 Standard basis: 6-311+G(d) (5D, 7F)
 Ernie: Thresh=  0.10000D-02 Tol=  0.10000D-05 Strict=F.
 There are   124 symmetry adapted cartesian basis functions of A   symmetry.
 There are   120 symmetry adapted basis functions of A   symmetry.
   120 basis functions,   200 primitive gaussians,   124 cartesian basis functions
    22 alpha electrons       22 beta electrons
       nuclear repulsion energy        75.0921190344 Hartrees.
 IExCor=  402 DFT=T Ex+Corr=B3LYP ExCW=0 ScaHFX=  0.200000
 ScaDFX=  0.800000  0.720000  1.000000  0.810000 ScalE2=  1.000000  1.000000
 IRadAn=      5 IRanWt=     -1 IRanGd=            0 ICorTp=0 IEmpDi=  4
 NAtoms=    4 NActive=    4 NUniq=    4 SFac= 1.00D+00 NAtFMM=   60 NAOKFM=F Big=F
 Integral buffers will be    131072 words long.
 Raffenetti 2 integral format.
 Two-electron integral symmetry is turned on.
 Leave Link  301 at Mon Aug 28 10:18:19 2023, MaxMem=  1610612736 cpu:               0.4 elap:               0.0
 (Enter /home/sekinelabo/g16/l302.exe)
 NPDir=0 NMtPBC=     1 NCelOv=     1 NCel=       1 NClECP=     1 NCelD=      1
         NCelK=      1 NCelE2=     1 NClLst=     1 CellRange=     0.0.
 One-electron integrals computed using PRISM.
 One-electron integral symmetry used in STVInt
 NBasis=   120 RedAO= T EigKep=  1.17D-04  NBF=   120
 NBsUse=   120 1.00D-06 EigRej= -1.00D+00 NBFU=   120
 Precomputing XC quadrature grid using
 IXCGrd= 4 IRadAn=           5 IRanWt=          -1 IRanGd=           0 AccXCQ= 0.00D+00.
 Generated NRdTot=       0 NPtTot=           0 NUsed=           0 NTot=          32
 NSgBfM=   116   116   116   116   116 MxSgAt=     4 MxSgA2=     4.
 Leave Link  302 at Mon Aug 28 10:18:19 2023, MaxMem=  1610612736 cpu:               1.4 elap:               0.1
 (Enter /home/sekinelabo/g16/l303.exe)
 DipDrv:  MaxL=1.
 Leave Link  303 at Mon Aug 28 10:18:19 2023, MaxMem=  1610612736 cpu:               0.3 elap:               0.0
 (Enter /home/sekinelabo/g16/l401.exe)
 ExpMin= 7.60D-03 ExpMax= 3.62D+04 ExpMxC= 1.21D+03 IAcc=3 IRadAn=         5 AccDes= 0.00D+00
 Harris functional with IExCor=  402 and IRadAn=       5 diagonalized for initial guess.
 HarFok:  IExCor=  402 AccDes= 0.00D+00 IRadAn=         5 IDoV= 1 UseB2=F ITyADJ=14
 ICtDFT=  3500011 ScaDFX=  1.000000  1.000000  1.000000  1.000000
 FoFCou: FMM=F IPFlag=           0 FMFlag=      100000 FMFlg1=           0
         NFxFlg=           0 DoJE=T BraDBF=F KetDBF=T FulRan=T
         wScrn=  0.000000 ICntrl=       500 IOpCl=  0 I1Cent=   200000004 NGrid=           0
         NMat0=    1 NMatS0=      1 NMatT0=    0 NMatD0=    1 NMtDS0=    0 NMtDT0=    0
 Petite list used in FoFCou.
 Harris En= -649.051212783025    
 JPrj=0 DoOrth=F DoCkMO=F.
 Leave Link  401 at Mon Aug 28 10:18:20 2023, MaxMem=  1610612736 cpu:               2.0 elap:               0.1
 (Enter /home/sekinelabo/g16/l502.exe)
 Keep R1 ints in memory in canonical form, NReq=41581754.
 FoFCou: FMM=F IPFlag=           0 FMFlag=           0 FMFlg1=           0
         NFxFlg=           0 DoJE=F BraDBF=F KetDBF=F FulRan=T
         wScrn=  0.000000 ICntrl=       600 IOpCl=  0 I1Cent=           0 NGrid=           0
         NMat0=    1 NMatS0=   7260 NMatT0=    0 NMatD0=    1 NMtDS0=    0 NMtDT0=    0
 Symmetry not used in FoFCou.
 Two-electron integral symmetry not used.
 Closed shell SCF:
 Using DIIS extrapolation, IDIIS=  1040.
 NGot=  1610612736 LenX=  1584221388 LenY=  1584205571
 Requested convergence on RMS density matrix=1.00D-08 within 128 cycles.
 Requested convergence on MAX density matrix=1.00D-06.
 Requested convergence on             energy=1.00D-06.
 No special actions if energy rises.

 Cycle   1  Pass 1  IDiag  1:
 E= -649.163959941680    
 DIIS: error= 1.59D-02 at cycle   1 NSaved=   1.
 NSaved= 1 IEnMin= 1 EnMin= -649.163959941680     IErMin= 1 ErrMin= 1.59D-02
 ErrMax= 1.59D-02  0.00D+00 EMaxC= 1.00D-01 BMatC= 2.66D-02 BMatP= 2.66D-02
 IDIUse=3 WtCom= 8.41D-01 WtEn= 1.59D-01
 Coeff-Com:  0.100D+01
 Coeff-En:   0.100D+01
 Coeff:      0.100D+01
 Gap=     0.030 Goal=   None    Shift=    0.000
 GapD=    0.030 DampG=0.250 DampE=0.500 DampFc=0.2500 IDamp=-1.
 Damping current iteration by 2.50D-01
 RMSDP=2.88D-03 MaxDP=1.58D-01              OVMax= 2.28D-01

 Cycle   2  Pass 1  IDiag  1:
 E= -649.167923872405     Delta-E=       -0.003963930725 Rises=F Damp=T
 DIIS: error= 1.11D-02 at cycle   2 NSaved=   2.
 NSaved= 2 IEnMin= 2 EnMin= -649.167923872405     IErMin= 2 ErrMin= 1.11D-02
 ErrMax= 1.11D-02  0.00D+00 EMaxC= 1.00D-01 BMatC= 1.02D-02 BMatP= 2.66D-02
 IDIUse=3 WtCom= 8.89D-01 WtEn= 1.11D-01
 Coeff-Com: -0.125D+01 0.225D+01
 Coeff-En:   0.000D+00 0.100D+01
 Coeff:     -0.111D+01 0.211D+01
 Gap=     0.026 Goal=   None    Shift=    0.000
 RMSDP=3.00D-03 MaxDP=1.56D-01 DE=-3.96D-03 OVMax= 4.25D-01

 Cycle   3  Pass 1  IDiag  1:
 E= -649.152496318845     Delta-E=        0.015427553560 Rises=F Damp=F
 DIIS: error= 5.16D-03 at cycle   3 NSaved=   3.
 NSaved= 3 IEnMin= 2 EnMin= -649.167923872405     IErMin= 3 ErrMin= 5.16D-03
 ErrMax= 5.16D-03  0.00D+00 EMaxC= 1.00D-01 BMatC= 2.78D-03 BMatP= 1.02D-02
 IDIUse=3 WtCom= 9.48D-01 WtEn= 5.16D-02
 Coeff-Com: -0.639D+00 0.113D+01 0.510D+00
 Coeff-En:   0.000D+00 0.841D+00 0.159D+00
 Coeff:     -0.606D+00 0.111D+01 0.492D+00
 Gap=     0.016 Goal=   None    Shift=    0.000
 RMSDP=5.25D-03 MaxDP=3.08D-01 DE= 1.54D-02 OVMax= 5.61D-01

 Cycle   4  Pass 1  IDiag  1:
 E= -649.140592234104     Delta-E=        0.011904084741 Rises=F Damp=F
 DIIS: error= 5.54D-03 at cycle   4 NSaved=   4.
 NSaved= 4 IEnMin= 2 EnMin= -649.167923872405     IErMin= 3 ErrMin= 5.16D-03
 ErrMax= 5.54D-03  0.00D+00 EMaxC= 1.00D-01 BMatC= 3.88D-03 BMatP= 2.78D-03
 IDIUse=3 WtCom= 1.18D-01 WtEn= 8.82D-01
 Coeff-Com: -0.188D-01 0.606D-01 0.525D+00 0.433D+00
 Coeff-En:   0.000D+00 0.000D+00 0.562D+00 0.438D+00
 Coeff:     -0.223D-02 0.718D-02 0.558D+00 0.437D+00
 Gap=     0.027 Goal=   None    Shift=    0.000
 RMSDP=2.80D-03 MaxDP=1.78D-01 DE= 1.19D-02 OVMax= 2.94D-01

 Cycle   5  Pass 1  IDiag  1:
 E= -649.176621126023     Delta-E=       -0.036028891919 Rises=F Damp=F
 DIIS: error= 7.91D-04 at cycle   5 NSaved=   5.
 NSaved= 5 IEnMin= 5 EnMin= -649.176621126023     IErMin= 5 ErrMin= 7.91D-04
 ErrMax= 7.91D-04  0.00D+00 EMaxC= 1.00D-01 BMatC= 6.35D-05 BMatP= 2.78D-03
 IDIUse=3 WtCom= 9.92D-01 WtEn= 7.91D-03
 Coeff-Com: -0.326D-01 0.417D-01 0.142D+00 0.285D-01 0.820D+00
 Coeff-En:   0.000D+00 0.000D+00 0.517D-02 0.000D+00 0.995D+00
 Coeff:     -0.323D-01 0.414D-01 0.141D+00 0.283D-01 0.821D+00
 Gap=     0.032 Goal=   None    Shift=    0.000
 RMSDP=3.21D-04 MaxDP=1.58D-02 DE=-3.60D-02 OVMax= 3.83D-02

 Cycle   6  Pass 1  IDiag  1:
 E= -649.177075882025     Delta-E=       -0.000454756003 Rises=F Damp=F
 DIIS: error= 8.24D-05 at cycle   6 NSaved=   6.
 NSaved= 6 IEnMin= 6 EnMin= -649.177075882025     IErMin= 6 ErrMin= 8.24D-05
 ErrMax= 8.24D-05  0.00D+00 EMaxC= 1.00D-01 BMatC= 1.47D-06 BMatP= 6.35D-05
 IDIUse=1 WtCom= 1.00D+00 WtEn= 0.00D+00
 Coeff-Com: -0.104D-01 0.133D-01 0.203D-01-0.768D-02 0.197D+00 0.787D+00
 Coeff:     -0.104D-01 0.133D-01 0.203D-01-0.768D-02 0.197D+00 0.787D+00
 Gap=     0.033 Goal=   None    Shift=    0.000
 RMSDP=9.22D-05 MaxDP=3.19D-03 DE=-4.55D-04 OVMax= 4.49D-03

 Cycle   7  Pass 1  IDiag  1:
 E= -649.177076808037     Delta-E=       -0.000000926011 Rises=F Damp=F
 DIIS: error= 8.16D-05 at cycle   7 NSaved=   7.
 NSaved= 7 IEnMin= 7 EnMin= -649.177076808037     IErMin= 7 ErrMin= 8.16D-05
 ErrMax= 8.16D-05  0.00D+00 EMaxC= 1.00D-01 BMatC= 6.70D-07 BMatP= 1.47D-06
 IDIUse=1 WtCom= 1.00D+00 WtEn= 0.00D+00
 Coeff-Com: -0.279D-02 0.359D-02 0.923D-02-0.694D-02 0.663D-01 0.328D+00
 Coeff-Com:  0.602D+00
 Coeff:     -0.279D-02 0.359D-02 0.923D-02-0.694D-02 0.663D-01 0.328D+00
 Coeff:      0.602D+00
 Gap=     0.033 Goal=   None    Shift=    0.000
 RMSDP=3.21D-05 MaxDP=1.38D-03 DE=-9.26D-07 OVMax= 2.11D-03

 Cycle   8  Pass 1  IDiag  1:
 E= -649.177080851501     Delta-E=       -0.000004043464 Rises=F Damp=F
 DIIS: error= 2.86D-05 at cycle   8 NSaved=   8.
 NSaved= 8 IEnMin= 8 EnMin= -649.177080851501     IErMin= 8 ErrMin= 2.86D-05
 ErrMax= 2.86D-05  0.00D+00 EMaxC= 1.00D-01 BMatC= 1.18D-07 BMatP= 6.70D-07
 IDIUse=1 WtCom= 1.00D+00 WtEn= 0.00D+00
 Coeff-Com:  0.341D-04-0.759D-04 0.417D-02-0.396D-02 0.143D-01 0.748D-01
 Coeff-Com:  0.245D+00 0.666D+00
 Coeff:      0.341D-04-0.759D-04 0.417D-02-0.396D-02 0.143D-01 0.748D-01
 Coeff:      0.245D+00 0.666D+00
 Gap=     0.033 Goal=   None    Shift=    0.000
 RMSDP=9.67D-06 MaxDP=4.09D-04 DE=-4.04D-06 OVMax= 7.77D-04

 Cycle   9  Pass 1  IDiag  1:
 E= -649.177081434516     Delta-E=       -0.000000583015 Rises=F Damp=F
 DIIS: error= 1.41D-05 at cycle   9 NSaved=   9.
 NSaved= 9 IEnMin= 9 EnMin= -649.177081434516     IErMin= 9 ErrMin= 1.41D-05
 ErrMax= 1.41D-05  0.00D+00 EMaxC= 1.00D-01 BMatC= 2.29D-08 BMatP= 1.18D-07
 IDIUse=1 WtCom= 1.00D+00 WtEn= 0.00D+00
 Coeff-Com:  0.535D-03-0.718D-03 0.120D-02-0.109D-02-0.311D-02-0.246D-01
 Coeff-Com: -0.222D-01 0.134D+00 0.916D+00
 Coeff:      0.535D-03-0.718D-03 0.120D-02-0.109D-02-0.311D-02-0.246D-01
 Coeff:     -0.222D-01 0.134D+00 0.916D+00
 Gap=     0.033 Goal=   None    Shift=    0.000
 RMSDP=4.87D-06 MaxDP=2.48D-04 DE=-5.83D-07 OVMax= 4.27D-04

 Cycle  10  Pass 1  IDiag  1:
 E= -649.177081571611     Delta-E=       -0.000000137096 Rises=F Damp=F
 DIIS: error= 5.61D-06 at cycle  10 NSaved=  10.
 NSaved=10 IEnMin=10 EnMin= -649.177081571611     IErMin=10 ErrMin= 5.61D-06
 ErrMax= 5.61D-06  0.00D+00 EMaxC= 1.00D-01 BMatC= 3.16D-09 BMatP= 2.29D-08
 IDIUse=1 WtCom= 1.00D+00 WtEn= 0.00D+00
 Coeff-Com:  0.146D-03-0.195D-03 0.425D-03-0.368D-03-0.139D-02-0.552D-02
 Coeff-Com: -0.244D-01-0.271D-02 0.166D+00 0.868D+00
 Coeff:      0.146D-03-0.195D-03 0.425D-03-0.368D-03-0.139D-02-0.552D-02
 Coeff:     -0.244D-01-0.271D-02 0.166D+00 0.868D+00
 Gap=     0.033 Goal=   None    Shift=    0.000
 RMSDP=1.76D-06 MaxDP=9.19D-05 DE=-1.37D-07 OVMax= 1.73D-04

 Cycle  11  Pass 1  IDiag  1:
 E= -649.177081593986     Delta-E=       -0.000000022374 Rises=F Damp=F
 DIIS: error= 1.89D-06 at cycle  11 NSaved=  11.
 NSaved=11 IEnMin=11 EnMin= -649.177081593986     IErMin=11 ErrMin= 1.89D-06
 ErrMax= 1.89D-06  0.00D+00 EMaxC= 1.00D-01 BMatC= 3.84D-10 BMatP= 3.16D-09
 IDIUse=1 WtCom= 1.00D+00 WtEn= 0.00D+00
 Coeff-Com:  0.215D-04-0.282D-04 0.128D-03-0.955D-04-0.144D-03 0.185D-02
 Coeff-Com: -0.458D-03-0.458D-02-0.465D-01 0.328D-01 0.102D+01
 Coeff:      0.215D-04-0.282D-04 0.128D-03-0.955D-04-0.144D-03 0.185D-02
 Coeff:     -0.458D-03-0.458D-02-0.465D-01 0.328D-01 0.102D+01
 Gap=     0.033 Goal=   None    Shift=    0.000
 RMSDP=6.29D-07 MaxDP=3.61D-05 DE=-2.24D-08 OVMax= 6.03D-05

 Cycle  12  Pass 1  IDiag  1:
 E= -649.177081596631     Delta-E=       -0.000000002645 Rises=F Damp=F
 DIIS: error= 6.15D-07 at cycle  12 NSaved=  12.
 NSaved=12 IEnMin=12 EnMin= -649.177081596631     IErMin=12 ErrMin= 6.15D-07
 ErrMax= 6.15D-07  0.00D+00 EMaxC= 1.00D-01 BMatC= 3.70D-11 BMatP= 3.84D-10
 IDIUse=1 WtCom= 1.00D+00 WtEn= 0.00D+00
 Coeff-Com:  0.260D-05-0.330D-05 0.239D-04-0.121D-04 0.401D-04 0.791D-03
 Coeff-Com:  0.107D-02-0.227D-02-0.195D-01-0.711D-01 0.132D+00 0.959D+00
 Coeff:      0.260D-05-0.330D-05 0.239D-04-0.121D-04 0.401D-04 0.791D-03
 Coeff:      0.107D-02-0.227D-02-0.195D-01-0.711D-01 0.132D+00 0.959D+00
 Gap=     0.033 Goal=   None    Shift=    0.000
 RMSDP=2.53D-07 MaxDP=1.55D-05 DE=-2.65D-09 OVMax= 2.70D-05

 Cycle  13  Pass 1  IDiag  1:
 E= -649.177081596936     Delta-E=       -0.000000000305 Rises=F Damp=F
 DIIS: error= 6.05D-08 at cycle  13 NSaved=  13.
 NSaved=13 IEnMin=13 EnMin= -649.177081596936     IErMin=13 ErrMin= 6.05D-08
 ErrMax= 6.05D-08  0.00D+00 EMaxC= 1.00D-01 BMatC= 3.52D-13 BMatP= 3.70D-11
 IDIUse=1 WtCom= 1.00D+00 WtEn= 0.00D+00
 Coeff-Com:  0.270D-05-0.353D-05 0.674D-05-0.375D-05-0.803D-06-0.472D-04
 Coeff-Com: -0.737D-04 0.405D-03 0.184D-02-0.156D-01-0.470D-01 0.275D+00
 Coeff-Com:  0.785D+00
 Coeff:      0.270D-05-0.353D-05 0.674D-05-0.375D-05-0.803D-06-0.472D-04
 Coeff:     -0.737D-04 0.405D-03 0.184D-02-0.156D-01-0.470D-01 0.275D+00
 Coeff:      0.785D+00
 Gap=     0.033 Goal=   None    Shift=    0.000
 RMSDP=1.70D-08 MaxDP=1.01D-06 DE=-3.05D-10 OVMax= 1.30D-06

 Cycle  14  Pass 1  IDiag  1:
 E= -649.177081596934     Delta-E=        0.000000000002 Rises=F Damp=F
 DIIS: error= 3.07D-08 at cycle  14 NSaved=  14.
 NSaved=14 IEnMin=13 EnMin= -649.177081596936     IErMin=14 ErrMin= 3.07D-08
 ErrMax= 3.07D-08  0.00D+00 EMaxC= 1.00D-01 BMatC= 9.84D-14 BMatP= 3.52D-13
 IDIUse=1 WtCom= 1.00D+00 WtEn= 0.00D+00
 Coeff-Com:  0.333D-06-0.437D-06 0.184D-05-0.116D-05-0.286D-06-0.369D-04
 Coeff-Com: -0.978D-04 0.129D-03 0.136D-02 0.738D-03-0.137D-01-0.208D-01
 Coeff-Com:  0.200D+00 0.833D+00
 Coeff:      0.333D-06-0.437D-06 0.184D-05-0.116D-05-0.286D-06-0.369D-04
 Coeff:     -0.978D-04 0.129D-03 0.136D-02 0.738D-03-0.137D-01-0.208D-01
 Coeff:      0.200D+00 0.833D+00
 Gap=     0.033 Goal=   None    Shift=    0.000
 RMSDP=9.71D-09 MaxDP=6.17D-07 DE= 2.05D-12 OVMax= 1.04D-06

 SCF Done:  E(RB3LYP) =  -649.177081597     A.U. after   14 cycles
            NFock= 14  Conv=0.97D-08     -V/T= 2.0030
 KE= 6.472482808644D+02 PE=-1.709164430616D+03 EE= 3.376469491207D+02
 Leave Link  502 at Mon Aug 28 10:18:21 2023, MaxMem=  1610612736 cpu:              20.7 elap:               1.5
 (Enter /home/sekinelabo/g16/l601.exe)
 Copying SCF densities to generalized density rwf, IOpCl= 0 IROHF=0.

 **********************************************************************

            Population analysis using the SCF Density.

 **********************************************************************

 Orbital symmetries:
       Occupied  (A) (A) (A) (A) (A) (A) (A) (A) (A) (A) (A) (A)
                 (A) (A) (A) (A) (A) (A) (A) (A) (A) (A)
       Virtual   (A) (A) (A) (A) (A) (A) (A) (A) (A) (A) (A) (A)
                 (A) (A) (A) (A) (A) (A) (A) (A) (A) (A) (A) (A)
                 (A) (A) (A) (A) (A) (A) (A) (A) (A) (A) (A) (A)
                 (A) (A) (A) (A) (A) (A) (A) (A) (A) (A) (A) (A)
                 (A) (A) (A) (A) (A) (A) (A) (A) (A) (A) (A) (A)
                 (A) (A) (A) (A) (A) (A) (A) (A) (A) (A) (A) (A)
                 (A) (A) (A) (A) (A) (A) (A) (A) (A) (A) (A) (A)
                 (A) (A) (A) (A) (A) (A) (A) (A) (A) (A) (A) (A)
                 (A) (A)
 The electronic state is 1-A.
 Alpha  occ. eigenvalues --  -38.45830 -38.45249 -38.45120 -38.44964  -2.21502
 Alpha  occ. eigenvalues --   -2.21015  -2.20799  -2.20735  -1.15191  -1.15166
 Alpha  occ. eigenvalues --   -1.15139  -1.14691  -1.14681  -1.14661  -1.14478
 Alpha  occ. eigenvalues --   -1.14477  -1.14438  -1.14397  -1.14389  -1.14365
 Alpha  occ. eigenvalues --   -0.14056  -0.10865
 Alpha virt. eigenvalues --   -0.07571  -0.06169  -0.02974  -0.02762  -0.01802
 Alpha virt. eigenvalues --   -0.01408  -0.01217  -0.00800  -0.00403   0.00154
 Alpha virt. eigenvalues --    0.00400   0.00467   0.00703   0.00750   0.01231
 Alpha virt. eigenvalues --    0.01425   0.01641   0.01669   0.01835   0.01867
 Alpha virt. eigenvalues --    0.01911   0.02180   0.02336   0.02608   0.02736
 Alpha virt. eigenvalues --    0.02867   0.03057   0.03091   0.03424   0.04368
 Alpha virt. eigenvalues --    0.06389   0.07109   0.07309   0.07614   0.08099
 Alpha virt. eigenvalues --    0.08447   0.08562   0.08688   0.09168   0.09521
 Alpha virt. eigenvalues --    0.09977   0.10012   0.10782   0.11896   0.12457
 Alpha virt. eigenvalues --    0.14560   0.29270   0.29369   0.30639   0.32637
 Alpha virt. eigenvalues --    0.32778   0.33792   0.34330   0.34733   0.35192
 Alpha virt. eigenvalues --    0.35259   0.35378   0.35695   0.35854   0.36479
 Alpha virt. eigenvalues --    0.37011   0.37335   0.38181   0.42236   0.42917
 Alpha virt. eigenvalues --    0.43235   0.43453   0.43626   0.44174   0.44699
 Alpha virt. eigenvalues --    0.44999   0.45796   0.46747   0.47118   0.48431
 Alpha virt. eigenvalues --    0.48649   0.49108   0.66244   2.01091   2.02904
 Alpha virt. eigenvalues --    2.03822   2.12020   4.40485   4.42879   4.43148
 Alpha virt. eigenvalues --    4.43387   4.44061   4.44112   4.44376   4.44738
 Alpha virt. eigenvalues --    4.45071   4.45157   4.46719   4.58428  96.20141
 Alpha virt. eigenvalues --   96.22334  96.23316  96.33873
          Condensed to atoms (all electrons):
               1          2          3          4
     1  Na  10.649343   0.340470   0.035218  -0.032069
     2  Na   0.340470  10.698146  -0.094173  -0.052735
     3  Na   0.035218  -0.094173  10.947544   0.194319
     4  Na  -0.032069  -0.052735   0.194319  10.922907
 Mulliken charges:
               1
     1  Na   0.007038
     2  Na   0.108293
     3  Na  -0.082909
     4  Na  -0.032422
 Sum of Mulliken charges =  -0.00000
 Mulliken charges with hydrogens summed into heavy atoms:
               1
     1  Na   0.007038
     2  Na   0.108293
     3  Na  -0.082909
     4  Na  -0.032422
 Electronic spatial extent (au):  <R**2>=           2170.8417
 Charge=              0.0000 electrons
 Dipole moment (field-independent basis, Debye):
    X=             -2.1911    Y=             -0.2860    Z=              0.0320  Tot=              2.2099
 Quadrupole moment (field-independent basis, Debye-Ang):
   XX=            -42.8573   YY=            -36.4822   ZZ=            -40.0057
   XY=             -6.0790   XZ=             -1.4588   YZ=              3.5766
 Traceless Quadrupole moment (field-independent basis, Debye-Ang):
   XX=             -3.0756   YY=              3.2995   ZZ=             -0.2239
   XY=             -6.0790   XZ=             -1.4588   YZ=              3.5766
 Octapole moment (field-independent basis, Debye-Ang**2):
  XXX=            -18.2903  YYY=             -3.9691  ZZZ=              1.4276  XYY=            -17.5417
  XXY=             -7.4841  XXZ=             30.8783  XZZ=            -26.3107  YZZ=             -3.5225
  YYZ=             -9.6104  XYZ=            -14.6438
 Hexadecapole moment (field-independent basis, Debye-Ang**3):
 XXXX=          -2813.1656 YYYY=           -592.2511 ZZZZ=           -347.6444 XXXY=           -187.7863
 XXXZ=            -43.6372 YYYX=             -9.7231 YYYZ=             23.7345 ZZZX=            -17.9063
 ZZZY=             25.9488 XXYY=           -612.3730 XXZZ=           -532.8116 YYZZ=           -154.6710
 XXYZ=             30.2336 YYXZ=             10.1096 ZZXY=             -6.2389
 N-N= 7.509211903435D+01 E-N=-1.709164428525D+03  KE= 6.472482808644D+02
 No NMR shielding tensors so no spin-rotation constants.
 Leave Link  601 at Mon Aug 28 10:18:21 2023, MaxMem=  1610612736 cpu:               0.9 elap:               0.1
 (Enter /home/sekinelabo/g16/l701.exe)
 ... and contract with generalized density number  0.
 Compute integral first derivatives.
 Leave Link  701 at Mon Aug 28 10:18:21 2023, MaxMem=  1610612736 cpu:               1.4 elap:               0.1
 (Enter /home/sekinelabo/g16/l702.exe)
 L702 exits ... SP integral derivatives will be done elsewhere.
 Leave Link  702 at Mon Aug 28 10:18:21 2023, MaxMem=  1610612736 cpu:               0.5 elap:               0.0
 (Enter /home/sekinelabo/g16/l703.exe)
 Integral derivatives from FoFJK, PRISM(SPDF).
 Compute integral first derivatives, UseDBF=F ICtDFT=           0.
 Calling FoFJK, ICntrl=      2127 FMM=F ISym2X=0 I1Cent= 0 IOpClX= 0 NMat=1 NMatS=1 NMatT=0.
 FoFJK:  IHMeth= 1 ICntrl=    2127 DoSepK=F KAlg= 0 I1Cent=           0 FoldK=F
 IRaf=         0 NMat=       1 IRICut=       1 DoRegI=T DoRafI=F ISym2E= 0 IDoP0=0 IntGTp=1.
 FoFCou: FMM=F IPFlag=           0 FMFlag=      100000 FMFlg1=         800
         NFxFlg=           0 DoJE=F BraDBF=F KetDBF=F FulRan=T
         wScrn=  0.000000 ICntrl=      2127 IOpCl=  0 I1Cent=           0 NGrid=           0
         NMat0=    1 NMatS0=      1 NMatT0=    0 NMatD0=    1 NMtDS0=    0 NMtDT0=    0
 Symmetry not used in FoFCou.
 Leave Link  703 at Mon Aug 28 10:18:22 2023, MaxMem=  1610612736 cpu:               5.8 elap:               0.4
 (Enter /home/sekinelabo/g16/l716.exe)
 Dipole        =-8.62047361D-01-1.12519111D-01 1.25834102D-02
 ***** Axes restored to original set *****
 -------------------------------------------------------------------
 Center     Atomic                   Forces (Hartrees/Bohr)
 Number     Number              X              Y              Z
 -------------------------------------------------------------------
      1       11          -0.001620592    0.000013148    0.002051756
      2       11           0.001860892    0.000181864    0.000086985
      3       11           0.002938160   -0.005106265   -0.001802152
      4       11          -0.003178460    0.004911253   -0.000336588
 -------------------------------------------------------------------
 Cartesian Forces:  Max     0.005106265 RMS     0.002624096
 Z-matrix is all fixed cartesians, so copy forces.
 Force constants in Cartesian coordinates: 
                1             2             3             4             5 
      1  0.275793D-01
      2  0.000000D+00  0.000000D+00
      3 -0.639105D-02  0.000000D+00  0.148102D-02
      4 -0.275793D-01  0.000000D+00  0.639105D-02  0.275793D-01
      5  0.000000D+00  0.000000D+00  0.000000D+00  0.000000D+00  0.000000D+00
      6  0.639105D-02  0.000000D+00 -0.148102D-02 -0.639105D-02  0.000000D+00
      7  0.000000D+00  0.000000D+00  0.000000D+00  0.000000D+00  0.000000D+00
      8  0.000000D+00  0.000000D+00  0.000000D+00  0.000000D+00  0.000000D+00
      9  0.000000D+00  0.000000D+00  0.000000D+00  0.000000D+00  0.000000D+00
     10  0.000000D+00  0.000000D+00  0.000000D+00  0.000000D+00  0.000000D+00
     11  0.000000D+00  0.000000D+00  0.000000D+00  0.000000D+00  0.000000D+00
     12  0.000000D+00  0.000000D+00  0.000000D+00  0.000000D+00  0.000000D+00
                6             7             8             9            10 
      6  0.148102D-02
      7  0.000000D+00  0.100000D+01
      8  0.000000D+00  0.000000D+00  0.100000D+01
      9  0.000000D+00  0.000000D+00  0.000000D+00  0.100000D+01
     10  0.000000D+00  0.000000D+00  0.000000D+00  0.000000D+00  0.100000D+01
     11  0.000000D+00  0.000000D+00  0.000000D+00  0.000000D+00  0.000000D+00
     12  0.000000D+00  0.000000D+00  0.000000D+00  0.000000D+00  0.000000D+00
               11            12 
     11  0.100000D+01
     12  0.000000D+00  0.100000D+01
 Leave Link  716 at Mon Aug 28 10:18:22 2023, MaxMem=  1610612736 cpu:               0.3 elap:               0.0
 (Enter /home/sekinelabo/g16/l103.exe)

 GradGradGradGradGradGradGradGradGradGradGradGradGradGradGradGradGradGrad
 Berny optimization.
 Search for a local minimum.
 Step number   1 out of a maximum of    2
 All quantities printed in internal units (Hartrees-Bohrs-Radians)
 Second derivative matrix not updated -- first step.
 The second derivative matrix:
                          X1        Y1        Z1        X2        Y2
           X1           0.02758
           Y1           0.00000   0.00000
           Z1          -0.00639  -0.00000   0.00148
           X2          -0.02758  -0.00000   0.00639   0.02758
           Y2          -0.00000  -0.00000   0.00000   0.00000   0.00000
           Z2           0.00639   0.00000  -0.00148  -0.00639  -0.00000
           X3           0.00000   0.00000   0.00000   0.00000   0.00000
           Y3           0.00000   0.00000   0.00000   0.00000   0.00000
           Z3           0.00000   0.00000   0.00000   0.00000   0.00000
           X4           0.00000   0.00000   0.00000   0.00000   0.00000
           Y4           0.00000   0.00000   0.00000   0.00000   0.00000
           Z4           0.00000   0.00000   0.00000   0.00000   0.00000
                          Z2        X3        Y3        Z3        X4
           Z2           0.00148
           X3           0.00000   1.00000
           Y3           0.00000   0.00000   1.00000
           Z3           0.00000  -0.00000  -0.00000   1.00000
           X4           0.00000   0.00000   0.00000   0.00000   1.00000
           Y4           0.00000   0.00000   0.00000   0.00000   0.00000
           Z4           0.00000   0.00000   0.00000   0.00000  -0.00000
                          Y4        Z4
           Y4           1.00000
           Z4          -0.00000   1.00000
 ITU=  0
     Eigenvalues ---    0.05812   0.05818   0.37297   0.50000   0.86014
     Eigenvalues ---    1.00000
 Angle between quadratic step and forces=  61.22 degrees.
 Linear search not attempted -- first point.
 B after Tr=    -0.000000    0.000000    0.000000
         Rot=    1.000000   -0.000000    0.000000   -0.000000 Ang=   0.00 deg.
 Variable       Old X    -DE/DX   Delta X   Delta X   Delta X     New X
                                 (Linear)    (Quad)   (Total)
    X1        0.00000  -0.00162   0.00000  -0.03161  -0.03161  -0.03161
    Y1        0.00000   0.00001   0.00000  -0.00484  -0.00484  -0.00484
    Z1        0.00000   0.00205   0.00000   0.01944   0.01944   0.01944
    X2       -5.82139   0.00186   0.00000   0.02848   0.02848  -5.79291
    Y2       -0.00000   0.00018   0.00000   0.00367   0.00367   0.00367
    Z2        1.34901   0.00009   0.00000  -0.01353  -0.01353   1.33548
    X3        0.00000   0.00294   0.00000   0.00437   0.00437   0.00437
    Y3       -0.00000  -0.00511   0.00000  -0.00457  -0.00457  -0.00457
    Z3        8.87231  -0.00180   0.00000  -0.00342  -0.00342   8.86889
    X4        5.48201  -0.00318   0.00000  -0.00124  -0.00124   5.48077
    Y4       -8.13668   0.00491   0.00000   0.00574   0.00574  -8.13094
    Z4        9.73207  -0.00034   0.00000  -0.00249  -0.00249   9.72958
         Item               Value     Threshold  Converged?
 Maximum Force            0.005106     0.000450     NO 
 RMS     Force            0.002624     0.000300     NO 
 Maximum Displacement     0.031612     0.001800     NO 
 RMS     Displacement     0.014436     0.001200     NO 
 Predicted change in Energy=-1.094097D-04
 GradGradGradGradGradGradGradGradGradGradGradGradGradGradGradGradGradGrad

 Leave Link  103 at Mon Aug 28 10:18:22 2023, MaxMem=  1610612736 cpu:               0.1 elap:               0.0
 (Enter /home/sekinelabo/g16/l9999.exe)
 1\1\GINC-SEKINELABO-XA7R-R37\Force\RB3LYP\6-311+G(d)\Na4\SEKINELABO\28
 -Aug-2023\0\\#p B3LYP/6-311+g(d) force\\\0,1\Na,0.,0.,0.\Na,-3.0805487
 28,0.,0.7138667416\Na,0.,0.,4.6950235693\Na,2.9009541705,-4.3057465428
 ,5.149989496\\Version=ES64L-G16RevB.01\State=1-A\HF=-649.1770816\RMSD=
 9.714e-09\RMSF=2.624e-03\Dipole=-0.473899,0.3723076,-0.6266987\Quadrup
 ole=4.3359709,-0.6707091,-3.6652617,-1.9581535,-3.5810166,1.1446808\PG
 =C01 [X(Na4)]\\@


 ONE BIG VICE IN A MAN IS APT TO KEEP OUT MANY SMALLER ONES.

                           -- BRET HARTE
 Job cpu time:       0 days  0 hours  0 minutes 36.4 seconds.
 Elapsed time:       0 days  0 hours  0 minutes  2.5 seconds.
 File lengths (MBytes):  RWF=     10 Int=      0 D2E=      0 Chk=      2 Scr=      1
 Normal termination of Gaussian 16 at Mon Aug 28 10:18:22 2023.
