 Initial command:
 /home/sekinelabo/g16/l1.exe "/home/sekinelabo/g16temp/Gau-20140.inp" -scrdir="/home/sekinelabo/g16temp/"
 Entering Link 1 = /home/sekinelabo/g16/l1.exe PID=     20384.
  
 Copyright (c) 1988-2017, Gaussian, Inc.  All Rights Reserved.
  
 This is part of the Gaussian(R) 16 program.  It is based on
 the Gaussian(R) 09 system (copyright 2009, Gaussian, Inc.),
 the Gaussian(R) 03 system (copyright 2003, Gaussian, Inc.),
 the Gaussian(R) 98 system (copyright 1998, Gaussian, Inc.),
 the Gaussian(R) 94 system (copyright 1995, Gaussian, Inc.),
 the Gaussian 92(TM) system (copyright 1992, Gaussian, Inc.),
 the Gaussian 90(TM) system (copyright 1990, Gaussian, Inc.),
 the Gaussian 88(TM) system (copyright 1988, Gaussian, Inc.),
 the Gaussian 86(TM) system (copyright 1986, Carnegie Mellon
 University), and the Gaussian 82(TM) system (copyright 1983,
 Carnegie Mellon University). Gaussian is a federally registered
 trademark of Gaussian, Inc.
  
 This software contains proprietary and confidential information,
 including trade secrets, belonging to Gaussian, Inc.
  
 This software is provided under written license and may be
 used, copied, transmitted, or stored only in accord with that
 written license.
  
 The following legend is applicable only to US Government
 contracts under FAR:
  
                    RESTRICTED RIGHTS LEGEND
  
 Use, reproduction and disclosure by the US Government is
 subject to restrictions as set forth in subparagraphs (a)
 and (c) of the Commercial Computer Software - Restricted
 Rights clause in FAR 52.227-19.
  
 Gaussian, Inc.
 340 Quinnipiac St., Bldg. 40, Wallingford CT 06492
  
  
 ---------------------------------------------------------------
 Warning -- This program may not be used in any manner that
 competes with the business of Gaussian, Inc. or will provide
 assistance to any competitor of Gaussian, Inc.  The licensee
 of this program is prohibited from giving any competitor of
 Gaussian, Inc. access to this program.  By using this program,
 the user acknowledges that Gaussian, Inc. is engaged in the
 business of creating and licensing software in the field of
 computational chemistry and represents and warrants to the
 licensee that it is not a competitor of Gaussian, Inc. and that
 it will not use this program in any manner prohibited above.
 ---------------------------------------------------------------
  

 Cite this work as:
 Gaussian 16, Revision B.01,
 M. J. Frisch, G. W. Trucks, H. B. Schlegel, G. E. Scuseria, 
 M. A. Robb, J. R. Cheeseman, G. Scalmani, V. Barone, 
 G. A. Petersson, H. Nakatsuji, X. Li, M. Caricato, A. V. Marenich, 
 J. Bloino, B. G. Janesko, R. Gomperts, B. Mennucci, H. P. Hratchian, 
 J. V. Ortiz, A. F. Izmaylov, J. L. Sonnenberg, D. Williams-Young, 
 F. Ding, F. Lipparini, F. Egidi, J. Goings, B. Peng, A. Petrone, 
 T. Henderson, D. Ranasinghe, V. G. Zakrzewski, J. Gao, N. Rega, 
 G. Zheng, W. Liang, M. Hada, M. Ehara, K. Toyota, R. Fukuda, 
 J. Hasegawa, M. Ishida, T. Nakajima, Y. Honda, O. Kitao, H. Nakai, 
 T. Vreven, K. Throssell, J. A. Montgomery, Jr., J. E. Peralta, 
 F. Ogliaro, M. J. Bearpark, J. J. Heyd, E. N. Brothers, K. N. Kudin, 
 V. N. Staroverov, T. A. Keith, R. Kobayashi, J. Normand, 
 K. Raghavachari, A. P. Rendell, J. C. Burant, S. S. Iyengar, 
 J. Tomasi, M. Cossi, J. M. Millam, M. Klene, C. Adamo, R. Cammi, 
 J. W. Ochterski, R. L. Martin, K. Morokuma, O. Farkas, 
 J. B. Foresman, and D. J. Fox, Gaussian, Inc., Wallingford CT, 2016.
 
 ******************************************
 Gaussian 16:  ES64L-G16RevB.01 20-Dec-2017
                23-Aug-2023 
 ******************************************
 %NProcShared=16
 Will use up to   16 processors via shared memory.
 %mem=12GB
 %Chk=checkpoint.chk
 -------------------------
 #p B3LYP/6-311+g(d) force
 -------------------------
 1/10=7,30=1,38=1/1,3;
 2/12=2,17=6,18=5,40=1/2;
 3/5=4,6=6,7=11,11=2,25=1,30=1,71=1,74=-5/1,2,3;
 4//1;
 5/5=2,38=5/2;
 6/7=2,8=2,9=2,10=2,28=1/1;
 7/29=1/1,2,3,16;
 1/10=7,30=1/3;
 99//99;
 Leave Link    1 at Wed Aug 23 10:07:41 2023, MaxMem=  1610612736 cpu:               0.2 elap:               0.0
 (Enter /home/sekinelabo/g16/l101.exe)


 Symbolic Z-matrix:
 Charge =  0 Multiplicity = 1
 Na                    0.        0.        0. 
 Na                   -4.87137   0.       -1.77807 
 Na                    0.        0.        4.80567 
 Na                    1.97237  -3.82372   3.70689 
 
 ITRead=  0  0  0  0
 MicOpt= -1 -1 -1 -1
 NAtoms=      4 NQM=        4 NQMF=       0 NMMI=      0 NMMIF=      0
                NMic=       0 NMicF=      0.
                    Isotopes and Nuclear Properties:
 (Nuclear quadrupole moments (NQMom) in fm**2, nuclear magnetic moments (NMagM)
  in nuclear magnetons)

  Atom         1           2           3           4
 IAtWgt=          23          23          23          23
 AtmWgt=  22.9897697  22.9897697  22.9897697  22.9897697
 NucSpn=           3           3           3           3
 AtZEff=  -0.0000000  -0.0000000  -0.0000000  -0.0000000
 NQMom=   10.4000000  10.4000000  10.4000000  10.4000000
 NMagM=    2.2175200   2.2175200   2.2175200   2.2175200
 AtZNuc=  11.0000000  11.0000000  11.0000000  11.0000000
 Leave Link  101 at Wed Aug 23 10:07:41 2023, MaxMem=  1610612736 cpu:               1.5 elap:               0.1
 (Enter /home/sekinelabo/g16/l103.exe)

 GradGradGradGradGradGradGradGradGradGradGradGradGradGradGradGradGradGrad
 Berny optimization.
 Initialization pass.
 Trust Radius=3.00D-01 FncErr=1.00D-07 GrdErr=1.00D-07 EigMax=2.50D+02 EigMin=1.00D-04
 Number of steps in this run=      2 maximum allowed number of steps=      2.
 GradGradGradGradGradGradGradGradGradGradGradGradGradGradGradGradGradGrad

 Leave Link  103 at Wed Aug 23 10:07:41 2023, MaxMem=  1610612736 cpu:               0.2 elap:               0.0
 (Enter /home/sekinelabo/g16/l202.exe)
                          Input orientation:                          
 ---------------------------------------------------------------------
 Center     Atomic      Atomic             Coordinates (Angstroms)
 Number     Number       Type             X           Y           Z
 ---------------------------------------------------------------------
      1         11           0        0.000000    0.000000    0.000000
      2         11           0       -4.871366    0.000000   -1.778069
      3         11           0        0.000000    0.000000    4.805667
      4         11           0        1.972371   -3.823722    3.706888
 ---------------------------------------------------------------------
                    Distance matrix (angstroms):
                    1          2          3          4
     1  Na   0.000000
     2  Na   5.185725   0.000000
     3  Na   4.805667   8.189981   0.000000
     4  Na   5.679094   9.567777   4.440542   0.000000
 Stoichiometry    Na4
 Framework group  C1[X(Na4)]
 Deg. of freedom     6
 Full point group                 C1      NOp   1
 Largest Abelian subgroup         C1      NOp   1
 Largest concise Abelian subgroup C1      NOp   1
                         Standard orientation:                         
 ---------------------------------------------------------------------
 Center     Atomic      Atomic             Coordinates (Angstroms)
 Number     Number       Type             X           Y           Z
 ---------------------------------------------------------------------
      1         11           0        0.966509   -0.537446    1.746613
      2         11           0        5.410024   -0.137966   -0.896744
      3         11           0       -2.349316    2.375512   -0.154547
      4         11           0       -4.027217   -1.700101   -0.695322
 ---------------------------------------------------------------------
 Rotational constants (GHZ):           1.6649270           0.3904411           0.3616686
 Leave Link  202 at Wed Aug 23 10:07:41 2023, MaxMem=  1610612736 cpu:               0.0 elap:               0.0
 (Enter /home/sekinelabo/g16/l301.exe)
 Standard basis: 6-311+G(d) (5D, 7F)
 Ernie: Thresh=  0.10000D-02 Tol=  0.10000D-05 Strict=F.
 There are   124 symmetry adapted cartesian basis functions of A   symmetry.
 There are   120 symmetry adapted basis functions of A   symmetry.
   120 basis functions,   200 primitive gaussians,   124 cartesian basis functions
    22 alpha electrons       22 beta electrons
       nuclear repulsion energy        65.8761066395 Hartrees.
 IExCor=  402 DFT=T Ex+Corr=B3LYP ExCW=0 ScaHFX=  0.200000
 ScaDFX=  0.800000  0.720000  1.000000  0.810000 ScalE2=  1.000000  1.000000
 IRadAn=      5 IRanWt=     -1 IRanGd=            0 ICorTp=0 IEmpDi=  4
 NAtoms=    4 NActive=    4 NUniq=    4 SFac= 1.00D+00 NAtFMM=   60 NAOKFM=F Big=F
 Integral buffers will be    131072 words long.
 Raffenetti 2 integral format.
 Two-electron integral symmetry is turned on.
 Leave Link  301 at Wed Aug 23 10:07:41 2023, MaxMem=  1610612736 cpu:               0.3 elap:               0.0
 (Enter /home/sekinelabo/g16/l302.exe)
 NPDir=0 NMtPBC=     1 NCelOv=     1 NCel=       1 NClECP=     1 NCelD=      1
         NCelK=      1 NCelE2=     1 NClLst=     1 CellRange=     0.0.
 One-electron integrals computed using PRISM.
 One-electron integral symmetry used in STVInt
 NBasis=   120 RedAO= T EigKep=  8.60D-04  NBF=   120
 NBsUse=   120 1.00D-06 EigRej= -1.00D+00 NBFU=   120
 Precomputing XC quadrature grid using
 IXCGrd= 4 IRadAn=           5 IRanWt=          -1 IRanGd=           0 AccXCQ= 0.00D+00.
 Generated NRdTot=       0 NPtTot=           0 NUsed=           0 NTot=          32
 NSgBfM=   115   115   115   115   115 MxSgAt=     4 MxSgA2=     4.
 Leave Link  302 at Wed Aug 23 10:07:41 2023, MaxMem=  1610612736 cpu:               1.3 elap:               0.1
 (Enter /home/sekinelabo/g16/l303.exe)
 DipDrv:  MaxL=1.
 Leave Link  303 at Wed Aug 23 10:07:41 2023, MaxMem=  1610612736 cpu:               0.3 elap:               0.0
 (Enter /home/sekinelabo/g16/l401.exe)
 ExpMin= 7.60D-03 ExpMax= 3.62D+04 ExpMxC= 1.21D+03 IAcc=3 IRadAn=         5 AccDes= 0.00D+00
 Harris functional with IExCor=  402 and IRadAn=       5 diagonalized for initial guess.
 HarFok:  IExCor=  402 AccDes= 0.00D+00 IRadAn=         5 IDoV= 1 UseB2=F ITyADJ=14
 ICtDFT=  3500011 ScaDFX=  1.000000  1.000000  1.000000  1.000000
 FoFCou: FMM=F IPFlag=           0 FMFlag=      100000 FMFlg1=           0
         NFxFlg=           0 DoJE=T BraDBF=F KetDBF=T FulRan=T
         wScrn=  0.000000 ICntrl=       500 IOpCl=  0 I1Cent=   200000004 NGrid=           0
         NMat0=    1 NMatS0=      1 NMatT0=    0 NMatD0=    1 NMtDS0=    0 NMtDT0=    0
 Petite list used in FoFCou.
 Harris En= -649.036748525301    
 JPrj=0 DoOrth=F DoCkMO=F.
 Leave Link  401 at Wed Aug 23 10:07:41 2023, MaxMem=  1610612736 cpu:               1.9 elap:               0.1
 (Enter /home/sekinelabo/g16/l502.exe)
 Keep R1 ints in memory in canonical form, NReq=41581754.
 FoFCou: FMM=F IPFlag=           0 FMFlag=           0 FMFlg1=           0
         NFxFlg=           0 DoJE=F BraDBF=F KetDBF=F FulRan=T
         wScrn=  0.000000 ICntrl=       600 IOpCl=  0 I1Cent=           0 NGrid=           0
         NMat0=    1 NMatS0=   7260 NMatT0=    0 NMatD0=    1 NMtDS0=    0 NMtDT0=    0
 Symmetry not used in FoFCou.
 Two-electron integral symmetry not used.
 Closed shell SCF:
 Using DIIS extrapolation, IDIIS=  1040.
 NGot=  1610612736 LenX=  1584221388 LenY=  1584205571
 Requested convergence on RMS density matrix=1.00D-08 within 128 cycles.
 Requested convergence on MAX density matrix=1.00D-06.
 Requested convergence on             energy=1.00D-06.
 No special actions if energy rises.

 Cycle   1  Pass 1  IDiag  1:
 E= -649.145710226656    
 DIIS: error= 1.36D-02 at cycle   1 NSaved=   1.
 NSaved= 1 IEnMin= 1 EnMin= -649.145710226656     IErMin= 1 ErrMin= 1.36D-02
 ErrMax= 1.36D-02  0.00D+00 EMaxC= 1.00D-01 BMatC= 2.74D-02 BMatP= 2.74D-02
 IDIUse=3 WtCom= 8.64D-01 WtEn= 1.36D-01
 Coeff-Com:  0.100D+01
 Coeff-En:   0.100D+01
 Coeff:      0.100D+01
 Gap=     0.019 Goal=   None    Shift=    0.000
 GapD=    0.019 DampG=0.250 DampE=0.500 DampFc=0.2500 IDamp=-1.
 Damping current iteration by 2.50D-01
 RMSDP=4.76D-03 MaxDP=2.50D-01              OVMax= 4.99D-01

 Cycle   2  Pass 1  IDiag  1:
 E= -649.149753151274     Delta-E=       -0.004042924618 Rises=F Damp=T
 DIIS: error= 9.70D-03 at cycle   2 NSaved=   2.
 NSaved= 2 IEnMin= 2 EnMin= -649.149753151274     IErMin= 2 ErrMin= 9.70D-03
 ErrMax= 9.70D-03  0.00D+00 EMaxC= 1.00D-01 BMatC= 1.03D-02 BMatP= 2.74D-02
 IDIUse=3 WtCom= 9.03D-01 WtEn= 9.70D-02
 Coeff-Com: -0.113D+01 0.213D+01
 Coeff-En:   0.594D-01 0.941D+00
 Coeff:     -0.102D+01 0.202D+01
 Gap=     0.029 Goal=   None    Shift=    0.000
 RMSDP=4.36D-03 MaxDP=2.54D-01 DE=-4.04D-03 OVMax= 6.15D-01

 Cycle   3  Pass 1  IDiag  1:
 E= -649.100117907350     Delta-E=        0.049635243924 Rises=F Damp=F
 DIIS: error= 9.42D-03 at cycle   3 NSaved=   3.
 NSaved= 3 IEnMin= 2 EnMin= -649.149753151274     IErMin= 3 ErrMin= 9.42D-03
 ErrMax= 9.42D-03  0.00D+00 EMaxC= 1.00D-01 BMatC= 5.79D-03 BMatP= 1.03D-02
 IDIUse=3 WtCom= 9.06D-01 WtEn= 9.42D-02
 Coeff-Com: -0.717D+00 0.130D+01 0.419D+00
 Coeff-En:   0.000D+00 0.958D+00 0.422D-01
 Coeff:     -0.650D+00 0.127D+01 0.384D+00
 Gap=     0.041 Goal=   None    Shift=    0.000
 RMSDP=6.42D-03 MaxDP=4.19D-01 DE= 4.96D-02 OVMax= 6.75D-01

 Cycle   4  Pass 1  IDiag  1:
 E= -649.131078254503     Delta-E=       -0.030960347153 Rises=F Damp=F
 DIIS: error= 6.75D-03 at cycle   4 NSaved=   4.
 NSaved= 4 IEnMin= 2 EnMin= -649.149753151274     IErMin= 4 ErrMin= 6.75D-03
 ErrMax= 6.75D-03  0.00D+00 EMaxC= 1.00D-01 BMatC= 3.10D-03 BMatP= 5.79D-03
 IDIUse=3 WtCom= 9.33D-01 WtEn= 6.75D-02
 EnCoef did     9 forward-backward iterations
 Coeff-Com:  0.229D-01 0.233D-01 0.396D+00 0.558D+00
 Coeff-En:   0.121D+00 0.000D+00 0.323D+00 0.557D+00
 Coeff:      0.295D-01 0.217D-01 0.391D+00 0.558D+00
 Gap=     0.023 Goal=   None    Shift=    0.000
 RMSDP=2.70D-03 MaxDP=1.28D-01 DE=-3.10D-02 OVMax= 2.92D-01

 Cycle   5  Pass 1  IDiag  1:
 E= -649.161030478961     Delta-E=       -0.029952224457 Rises=F Damp=F
 DIIS: error= 3.74D-04 at cycle   5 NSaved=   5.
 NSaved= 5 IEnMin= 5 EnMin= -649.161030478961     IErMin= 5 ErrMin= 3.74D-04
 ErrMax= 3.74D-04  0.00D+00 EMaxC= 1.00D-01 BMatC= 2.89D-05 BMatP= 3.10D-03
 IDIUse=3 WtCom= 9.96D-01 WtEn= 3.74D-03
 Coeff-Com:  0.144D-01-0.198D-01 0.399D-01 0.452D-01 0.920D+00
 Coeff-En:   0.000D+00 0.000D+00 0.000D+00 0.000D+00 0.100D+01
 Coeff:      0.144D-01-0.197D-01 0.398D-01 0.451D-01 0.921D+00
 Gap=     0.028 Goal=   None    Shift=    0.000
 RMSDP=4.00D-04 MaxDP=1.33D-02 DE=-3.00D-02 OVMax= 3.35D-02

 Cycle   6  Pass 1  IDiag  1:
 E= -649.161180327989     Delta-E=       -0.000149849028 Rises=F Damp=F
 DIIS: error= 2.59D-04 at cycle   6 NSaved=   6.
 NSaved= 6 IEnMin= 6 EnMin= -649.161180327989     IErMin= 6 ErrMin= 2.59D-04
 ErrMax= 2.59D-04  0.00D+00 EMaxC= 1.00D-01 BMatC= 1.14D-05 BMatP= 2.89D-05
 IDIUse=3 WtCom= 9.97D-01 WtEn= 2.59D-03
 Coeff-Com: -0.257D-02 0.340D-02-0.587D-03-0.720D-02 0.366D+00 0.641D+00
 Coeff-En:   0.000D+00 0.000D+00 0.000D+00 0.000D+00 0.000D+00 0.100D+01
 Coeff:     -0.256D-02 0.339D-02-0.586D-03-0.718D-02 0.365D+00 0.642D+00
 Gap=     0.028 Goal=   None    Shift=    0.000
 RMSDP=1.60D-04 MaxDP=8.36D-03 DE=-1.50D-04 OVMax= 1.61D-02

 Cycle   7  Pass 1  IDiag  1:
 E= -649.161200458788     Delta-E=       -0.000020130799 Rises=F Damp=F
 DIIS: error= 1.76D-04 at cycle   7 NSaved=   7.
 NSaved= 7 IEnMin= 7 EnMin= -649.161200458788     IErMin= 7 ErrMin= 1.76D-04
 ErrMax= 1.76D-04  0.00D+00 EMaxC= 1.00D-01 BMatC= 3.72D-06 BMatP= 1.14D-05
 IDIUse=3 WtCom= 9.98D-01 WtEn= 1.76D-03
 Coeff-Com: -0.399D-02 0.563D-02-0.492D-02-0.510D-02 0.123D+00 0.371D+00
 Coeff-Com:  0.515D+00
 Coeff-En:   0.000D+00 0.000D+00 0.000D+00 0.000D+00 0.000D+00 0.338D+00
 Coeff-En:   0.662D+00
 Coeff:     -0.398D-02 0.562D-02-0.491D-02-0.509D-02 0.122D+00 0.371D+00
 Coeff:      0.515D+00
 Gap=     0.028 Goal=   None    Shift=    0.000
 RMSDP=1.32D-04 MaxDP=6.31D-03 DE=-2.01D-05 OVMax= 1.14D-02

 Cycle   8  Pass 1  IDiag  1:
 E= -649.161219019059     Delta-E=       -0.000018560271 Rises=F Damp=F
 DIIS: error= 1.42D-04 at cycle   8 NSaved=   8.
 NSaved= 8 IEnMin= 8 EnMin= -649.161219019059     IErMin= 8 ErrMin= 1.42D-04
 ErrMax= 1.42D-04  0.00D+00 EMaxC= 1.00D-01 BMatC= 1.21D-06 BMatP= 3.72D-06
 IDIUse=3 WtCom= 9.99D-01 WtEn= 1.42D-03
 Coeff-Com: -0.214D-02 0.301D-02-0.404D-02-0.862D-03 0.240D-01 0.137D+00
 Coeff-Com:  0.377D+00 0.466D+00
 Coeff-En:   0.000D+00 0.000D+00 0.000D+00 0.000D+00 0.000D+00 0.000D+00
 Coeff-En:   0.260D+00 0.740D+00
 Coeff:     -0.214D-02 0.301D-02-0.403D-02-0.861D-03 0.240D-01 0.137D+00
 Coeff:      0.377D+00 0.466D+00
 Gap=     0.028 Goal=   None    Shift=    0.000
 RMSDP=4.70D-05 MaxDP=2.44D-03 DE=-1.86D-05 OVMax= 4.82D-03

 Cycle   9  Pass 1  IDiag  1:
 E= -649.161226835204     Delta-E=       -0.000007816145 Rises=F Damp=F
 DIIS: error= 3.77D-05 at cycle   9 NSaved=   9.
 NSaved= 9 IEnMin= 9 EnMin= -649.161226835204     IErMin= 9 ErrMin= 3.77D-05
 ErrMax= 3.77D-05  0.00D+00 EMaxC= 1.00D-01 BMatC= 1.41D-07 BMatP= 1.21D-06
 IDIUse=1 WtCom= 1.00D+00 WtEn= 0.00D+00
 Coeff-Com: -0.498D-03 0.785D-03-0.177D-02 0.437D-02-0.269D-01-0.504D-01
 Coeff-Com: -0.368D-01 0.669D-01 0.104D+01
 Coeff:     -0.498D-03 0.785D-03-0.177D-02 0.437D-02-0.269D-01-0.504D-01
 Coeff:     -0.368D-01 0.669D-01 0.104D+01
 Gap=     0.028 Goal=   None    Shift=    0.000
 RMSDP=2.32D-05 MaxDP=7.15D-04 DE=-7.82D-06 OVMax= 2.26D-03

 Cycle  10  Pass 1  IDiag  1:
 E= -649.161228106612     Delta-E=       -0.000001271407 Rises=F Damp=F
 DIIS: error= 1.79D-05 at cycle  10 NSaved=  10.
 NSaved=10 IEnMin=10 EnMin= -649.161228106612     IErMin=10 ErrMin= 1.79D-05
 ErrMax= 1.79D-05  0.00D+00 EMaxC= 1.00D-01 BMatC= 3.32D-08 BMatP= 1.41D-07
 IDIUse=1 WtCom= 1.00D+00 WtEn= 0.00D+00
 Coeff-Com: -0.321D-03 0.439D-03-0.555D-03 0.205D-02-0.386D-02-0.635D-02
 Coeff-Com: -0.231D-01-0.237D-02-0.859D-01 0.112D+01
 Coeff:     -0.321D-03 0.439D-03-0.555D-03 0.205D-02-0.386D-02-0.635D-02
 Coeff:     -0.231D-01-0.237D-02-0.859D-01 0.112D+01
 Gap=     0.028 Goal=   None    Shift=    0.000
 RMSDP=7.97D-06 MaxDP=2.83D-04 DE=-1.27D-06 OVMax= 8.22D-04

 Cycle  11  Pass 1  IDiag  1:
 E= -649.161228349595     Delta-E=       -0.000000242983 Rises=F Damp=F
 DIIS: error= 9.41D-06 at cycle  11 NSaved=  11.
 NSaved=11 IEnMin=11 EnMin= -649.161228349595     IErMin=11 ErrMin= 9.41D-06
 ErrMax= 9.41D-06  0.00D+00 EMaxC= 1.00D-01 BMatC= 5.74D-09 BMatP= 3.32D-08
 IDIUse=1 WtCom= 1.00D+00 WtEn= 0.00D+00
 Coeff-Com: -0.124D-03 0.158D-03-0.194D-03 0.757D-03 0.228D-02 0.593D-02
 Coeff-Com:  0.327D-02-0.677D-02-0.150D+00 0.260D+00 0.885D+00
 Coeff:     -0.124D-03 0.158D-03-0.194D-03 0.757D-03 0.228D-02 0.593D-02
 Coeff:      0.327D-02-0.677D-02-0.150D+00 0.260D+00 0.885D+00
 Gap=     0.028 Goal=   None    Shift=    0.000
 RMSDP=2.87D-06 MaxDP=1.50D-04 DE=-2.43D-07 OVMax= 2.44D-04

 Cycle  12  Pass 1  IDiag  1:
 E= -649.161228395000     Delta-E=       -0.000000045405 Rises=F Damp=F
 DIIS: error= 2.28D-06 at cycle  12 NSaved=  12.
 NSaved=12 IEnMin=12 EnMin= -649.161228395000     IErMin=12 ErrMin= 2.28D-06
 ErrMax= 2.28D-06  0.00D+00 EMaxC= 1.00D-01 BMatC= 5.74D-10 BMatP= 5.74D-09
 IDIUse=1 WtCom= 1.00D+00 WtEn= 0.00D+00
 Coeff-Com: -0.596D-05 0.563D-05-0.538D-04 0.159D-03 0.750D-03 0.126D-02
 Coeff-Com:  0.161D-02 0.626D-02-0.187D-01-0.828D-01 0.168D+00 0.924D+00
 Coeff:     -0.596D-05 0.563D-05-0.538D-04 0.159D-03 0.750D-03 0.126D-02
 Coeff:      0.161D-02 0.626D-02-0.187D-01-0.828D-01 0.168D+00 0.924D+00
 Gap=     0.028 Goal=   None    Shift=    0.000
 RMSDP=7.81D-07 MaxDP=4.47D-05 DE=-4.54D-08 OVMax= 8.13D-05

 Cycle  13  Pass 1  IDiag  1:
 E= -649.161228399235     Delta-E=       -0.000000004236 Rises=F Damp=F
 DIIS: error= 7.70D-07 at cycle  13 NSaved=  13.
 NSaved=13 IEnMin=13 EnMin= -649.161228399235     IErMin=13 ErrMin= 7.70D-07
 ErrMax= 7.70D-07  0.00D+00 EMaxC= 1.00D-01 BMatC= 6.09D-11 BMatP= 5.74D-10
 IDIUse=1 WtCom= 1.00D+00 WtEn= 0.00D+00
 Coeff-Com:  0.562D-05-0.749D-05-0.148D-04 0.383D-04-0.651D-04-0.280D-03
 Coeff-Com: -0.113D-02 0.168D-02 0.972D-02-0.250D-01-0.571D-01 0.447D-01
 Coeff-Com:  0.103D+01
 Coeff:      0.562D-05-0.749D-05-0.148D-04 0.383D-04-0.651D-04-0.280D-03
 Coeff:     -0.113D-02 0.168D-02 0.972D-02-0.250D-01-0.571D-01 0.447D-01
 Coeff:      0.103D+01
 Gap=     0.028 Goal=   None    Shift=    0.000
 RMSDP=2.83D-07 MaxDP=1.70D-05 DE=-4.24D-09 OVMax= 2.87D-05

 Cycle  14  Pass 1  IDiag  1:
 E= -649.161228399721     Delta-E=       -0.000000000485 Rises=F Damp=F
 DIIS: error= 1.79D-07 at cycle  14 NSaved=  14.
 NSaved=14 IEnMin=14 EnMin= -649.161228399721     IErMin=14 ErrMin= 1.79D-07
 ErrMax= 1.79D-07  0.00D+00 EMaxC= 1.00D-01 BMatC= 3.23D-12 BMatP= 6.09D-11
 IDIUse=1 WtCom= 1.00D+00 WtEn= 0.00D+00
 Coeff-Com:  0.490D-06-0.538D-06-0.527D-05 0.115D-04-0.539D-04-0.142D-03
 Coeff-Com: -0.392D-03 0.466D-03 0.342D-02-0.207D-02-0.304D-01-0.358D-01
 Coeff-Com:  0.256D+00 0.809D+00
 Coeff:      0.490D-06-0.538D-06-0.527D-05 0.115D-04-0.539D-04-0.142D-03
 Coeff:     -0.392D-03 0.466D-03 0.342D-02-0.207D-02-0.304D-01-0.358D-01
 Coeff:      0.256D+00 0.809D+00
 Gap=     0.028 Goal=   None    Shift=    0.000
 RMSDP=6.94D-08 MaxDP=3.40D-06 DE=-4.85D-10 OVMax= 7.88D-06

 Cycle  15  Pass 1  IDiag  1:
 E= -649.161228399742     Delta-E=       -0.000000000021 Rises=F Damp=F
 DIIS: error= 7.27D-08 at cycle  15 NSaved=  15.
 NSaved=15 IEnMin=15 EnMin= -649.161228399742     IErMin=15 ErrMin= 7.27D-08
 ErrMax= 7.27D-08  0.00D+00 EMaxC= 1.00D-01 BMatC= 4.75D-13 BMatP= 3.23D-12
 IDIUse=1 WtCom= 1.00D+00 WtEn= 0.00D+00
 Coeff-Com: -0.966D-06 0.127D-05-0.470D-06 0.888D-06-0.866D-05 0.173D-04
 Coeff-Com:  0.371D-04 0.399D-04-0.446D-03 0.169D-02 0.394D-03-0.902D-02
 Coeff-Com: -0.102D+00 0.146D+00 0.963D+00
 Coeff:     -0.966D-06 0.127D-05-0.470D-06 0.888D-06-0.866D-05 0.173D-04
 Coeff:      0.371D-04 0.399D-04-0.446D-03 0.169D-02 0.394D-03-0.902D-02
 Coeff:     -0.102D+00 0.146D+00 0.963D+00
 Gap=     0.028 Goal=   None    Shift=    0.000
 RMSDP=3.21D-08 MaxDP=1.84D-06 DE=-2.07D-11 OVMax= 3.25D-06

 Cycle  16  Pass 1  IDiag  1:
 E= -649.161228399740     Delta-E=        0.000000000002 Rises=F Damp=F
 DIIS: error= 1.94D-09 at cycle  16 NSaved=  16.
 NSaved=16 IEnMin=15 EnMin= -649.161228399742     IErMin=16 ErrMin= 1.94D-09
 ErrMax= 1.94D-09  0.00D+00 EMaxC= 1.00D-01 BMatC= 1.02D-15 BMatP= 4.75D-13
 IDIUse=1 WtCom= 1.00D+00 WtEn= 0.00D+00
 Large coefficients: NSaved= 16 BigCof=    0.00 CofMax=   10.00 Det=-9.20D-15
 Inversion failed.  Reducing to 15 matrices.
 Coeff-Com: -0.220D-06 0.279D-06 0.405D-06 0.265D-05 0.109D-04 0.283D-04
 Coeff-Com:  0.464D-05-0.322D-03 0.369D-04 0.229D-02 0.423D-02-0.212D-01
 Coeff-Com: -0.348D-01 0.982D-01 0.951D+00
 Coeff:     -0.220D-06 0.279D-06 0.405D-06 0.265D-05 0.109D-04 0.283D-04
 Coeff:      0.464D-05-0.322D-03 0.369D-04 0.229D-02 0.423D-02-0.212D-01
 Coeff:     -0.348D-01 0.982D-01 0.951D+00
 Gap=     0.028 Goal=   None    Shift=    0.000
 RMSDP=2.49D-09 MaxDP=4.53D-08 DE= 1.59D-12 OVMax= 1.55D-07

 SCF Done:  E(RB3LYP) =  -649.161228400     A.U. after   16 cycles
            NFock= 16  Conv=0.25D-08     -V/T= 2.0031
 KE= 6.471781320742D+02 PE=-1.690404966969D+03 EE= 3.281894998561D+02
 Leave Link  502 at Wed Aug 23 10:07:43 2023, MaxMem=  1610612736 cpu:              21.7 elap:               1.6
 (Enter /home/sekinelabo/g16/l601.exe)
 Copying SCF densities to generalized density rwf, IOpCl= 0 IROHF=0.

 **********************************************************************

            Population analysis using the SCF Density.

 **********************************************************************

 Orbital symmetries:
       Occupied  (A) (A) (A) (A) (A) (A) (A) (A) (A) (A) (A) (A)
                 (A) (A) (A) (A) (A) (A) (A) (A) (A) (A)
       Virtual   (A) (A) (A) (A) (A) (A) (A) (A) (A) (A) (A) (A)
                 (A) (A) (A) (A) (A) (A) (A) (A) (A) (A) (A) (A)
                 (A) (A) (A) (A) (A) (A) (A) (A) (A) (A) (A) (A)
                 (A) (A) (A) (A) (A) (A) (A) (A) (A) (A) (A) (A)
                 (A) (A) (A) (A) (A) (A) (A) (A) (A) (A) (A) (A)
                 (A) (A) (A) (A) (A) (A) (A) (A) (A) (A) (A) (A)
                 (A) (A) (A) (A) (A) (A) (A) (A) (A) (A) (A) (A)
                 (A) (A) (A) (A) (A) (A) (A) (A) (A) (A) (A) (A)
                 (A) (A)
 The electronic state is 1-A.
 Alpha  occ. eigenvalues --  -38.46647 -38.46321 -38.45804 -38.45158  -2.22320
 Alpha  occ. eigenvalues --   -2.22000  -2.21473  -2.20836  -1.16005  -1.15985
 Alpha  occ. eigenvalues --   -1.15948  -1.15681  -1.15679  -1.15624  -1.15161
 Alpha  occ. eigenvalues --   -1.15144  -1.15104  -1.14515  -1.14515  -1.14476
 Alpha  occ. eigenvalues --   -0.13133  -0.10819
 Alpha virt. eigenvalues --   -0.08007  -0.07253  -0.02758  -0.02625  -0.02286
 Alpha virt. eigenvalues --   -0.01795  -0.01246  -0.00948  -0.00790  -0.00268
 Alpha virt. eigenvalues --    0.00117   0.00237   0.00518   0.00564   0.01031
 Alpha virt. eigenvalues --    0.01236   0.01466   0.01637   0.01716   0.01831
 Alpha virt. eigenvalues --    0.01896   0.02024   0.02174   0.02367   0.02506
 Alpha virt. eigenvalues --    0.02781   0.02942   0.03064   0.03176   0.03299
 Alpha virt. eigenvalues --    0.06499   0.07169   0.07659   0.07796   0.07982
 Alpha virt. eigenvalues --    0.08384   0.08468   0.08506   0.08917   0.08984
 Alpha virt. eigenvalues --    0.09276   0.09399   0.10460   0.11465   0.11917
 Alpha virt. eigenvalues --    0.12442   0.31236   0.31929   0.32206   0.33227
 Alpha virt. eigenvalues --    0.33538   0.33833   0.34331   0.34477   0.34805
 Alpha virt. eigenvalues --    0.35219   0.35254   0.35296   0.35707   0.35915
 Alpha virt. eigenvalues --    0.35952   0.36367   0.36489   0.37177   0.37403
 Alpha virt. eigenvalues --    0.38979   0.42397   0.42649   0.43148   0.43363
 Alpha virt. eigenvalues --    0.43521   0.44388   0.44823   0.45730   0.46258
 Alpha virt. eigenvalues --    0.47034   0.47807   0.49158   2.00085   2.02124
 Alpha virt. eigenvalues --    2.02832   2.03797   4.41837   4.42142   4.42384
 Alpha virt. eigenvalues --    4.42846   4.42896   4.43528   4.43902   4.44071
 Alpha virt. eigenvalues --    4.44355   4.44769   4.45760   4.46553  96.19113
 Alpha virt. eigenvalues --   96.21363  96.22239  96.23282
          Condensed to atoms (all electrons):
               1          2          3          4
     1  Na  10.958517   0.187355   0.038445  -0.095268
     2  Na   0.187355  10.897542  -0.030501  -0.033710
     3  Na   0.038445  -0.030501  10.731130   0.217816
     4  Na  -0.095268  -0.033710   0.217816  10.844538
 Mulliken charges:
               1
     1  Na  -0.089049
     2  Na  -0.020685
     3  Na   0.043111
     4  Na   0.066624
 Sum of Mulliken charges =  -0.00000
 Mulliken charges with hydrogens summed into heavy atoms:
               1
     1  Na  -0.089049
     2  Na  -0.020685
     3  Na   0.043111
     4  Na   0.066624
 Electronic spatial extent (au):  <R**2>=           2646.9728
 Charge=              0.0000 electrons
 Dipole moment (field-independent basis, Debye):
    X=             -2.3268    Y=              0.3066    Z=             -0.2380  Tot=              2.3589
 Quadrupole moment (field-independent basis, Debye-Ang):
   XX=            -42.4564   YY=            -32.5181   ZZ=            -43.4104
   XY=              3.3207   XZ=             -2.4605   YZ=             -0.3375
 Traceless Quadrupole moment (field-independent basis, Debye-Ang):
   XX=             -2.9948   YY=              6.9435   ZZ=             -3.9487
   XY=              3.3207   XZ=             -2.4605   YZ=             -0.3375
 Octapole moment (field-independent basis, Debye-Ang**2):
  XXX=             -3.7611  YYY=             22.1017  ZZZ=              3.8554  XYY=            -49.1009
  XXY=            -19.5431  XXZ=            -31.6831  XZZ=             -4.6108  YZZ=             -2.8723
  YYZ=             -5.1036  XYZ=             -5.5215
 Hexadecapole moment (field-independent basis, Debye-Ang**3):
 XXXX=          -3415.4985 YYYY=           -590.3231 ZZZZ=           -478.1165 XXXY=            150.3642
 XXXZ=           -113.2215 YYYX=             -9.1127 YYYZ=             -1.1228 ZZZX=            -11.4160
 ZZZY=             -5.5223 XXYY=           -645.7746 XXZZ=           -707.8927 YYZZ=           -191.3754
 XXYZ=             29.1547 YYXZ=             12.9365 ZZXY=              9.5046
 N-N= 6.587610663947D+01 E-N=-1.690404967009D+03  KE= 6.471781320742D+02
 No NMR shielding tensors so no spin-rotation constants.
 Leave Link  601 at Wed Aug 23 10:07:43 2023, MaxMem=  1610612736 cpu:               0.9 elap:               0.1
 (Enter /home/sekinelabo/g16/l701.exe)
 ... and contract with generalized density number  0.
 Compute integral first derivatives.
 Leave Link  701 at Wed Aug 23 10:07:43 2023, MaxMem=  1610612736 cpu:               1.2 elap:               0.1
 (Enter /home/sekinelabo/g16/l702.exe)
 L702 exits ... SP integral derivatives will be done elsewhere.
 Leave Link  702 at Wed Aug 23 10:07:43 2023, MaxMem=  1610612736 cpu:               0.4 elap:               0.0
 (Enter /home/sekinelabo/g16/l703.exe)
 Integral derivatives from FoFJK, PRISM(SPDF).
 Compute integral first derivatives, UseDBF=F ICtDFT=           0.
 Calling FoFJK, ICntrl=      2127 FMM=F ISym2X=0 I1Cent= 0 IOpClX= 0 NMat=1 NMatS=1 NMatT=0.
 FoFJK:  IHMeth= 1 ICntrl=    2127 DoSepK=F KAlg= 0 I1Cent=           0 FoldK=F
 IRaf=         0 NMat=       1 IRICut=       1 DoRegI=T DoRafI=F ISym2E= 0 IDoP0=0 IntGTp=1.
 FoFCou: FMM=F IPFlag=           0 FMFlag=      100000 FMFlg1=         800
         NFxFlg=           0 DoJE=F BraDBF=F KetDBF=F FulRan=T
         wScrn=  0.000000 ICntrl=      2127 IOpCl=  0 I1Cent=           0 NGrid=           0
         NMat0=    1 NMatS0=      1 NMatT0=    0 NMatD0=    1 NMtDS0=    0 NMtDT0=    0
 Symmetry not used in FoFCou.
 Leave Link  703 at Wed Aug 23 10:07:43 2023, MaxMem=  1610612736 cpu:               5.5 elap:               0.3
 (Enter /home/sekinelabo/g16/l716.exe)
 Dipole        =-9.15421689D-01 1.20625407D-01-9.36554689D-02
 ***** Axes restored to original set *****
 -------------------------------------------------------------------
 Center     Atomic                   Forces (Hartrees/Bohr)
 Number     Number              X              Y              Z
 -------------------------------------------------------------------
      1       11          -0.005551110   -0.000288987    0.000723133
      2       11           0.005516492    0.000095631    0.001926593
      3       11           0.003312543   -0.006398246   -0.004345225
      4       11          -0.003277925    0.006591601    0.001695499
 -------------------------------------------------------------------
 Cartesian Forces:  Max     0.006591601 RMS     0.004014910
 Z-matrix is all fixed cartesians, so copy forces.
 Force constants in Cartesian coordinates: 
                1             2             3             4             5 
      1  0.100000D+01
      2  0.000000D+00  0.100000D+01
      3  0.000000D+00  0.000000D+00  0.100000D+01
      4  0.000000D+00  0.000000D+00  0.000000D+00  0.100000D+01
      5  0.000000D+00  0.000000D+00  0.000000D+00  0.000000D+00  0.100000D+01
      6  0.000000D+00  0.000000D+00  0.000000D+00  0.000000D+00  0.000000D+00
      7  0.000000D+00  0.000000D+00  0.000000D+00  0.000000D+00  0.000000D+00
      8  0.000000D+00  0.000000D+00  0.000000D+00  0.000000D+00  0.000000D+00
      9  0.000000D+00  0.000000D+00  0.000000D+00  0.000000D+00  0.000000D+00
     10  0.000000D+00  0.000000D+00  0.000000D+00  0.000000D+00  0.000000D+00
     11  0.000000D+00  0.000000D+00  0.000000D+00  0.000000D+00  0.000000D+00
     12  0.000000D+00  0.000000D+00  0.000000D+00  0.000000D+00  0.000000D+00
                6             7             8             9            10 
      6  0.100000D+01
      7  0.000000D+00  0.100000D+01
      8  0.000000D+00  0.000000D+00  0.100000D+01
      9  0.000000D+00  0.000000D+00  0.000000D+00  0.100000D+01
     10  0.000000D+00  0.000000D+00  0.000000D+00  0.000000D+00  0.100000D+01
     11  0.000000D+00  0.000000D+00  0.000000D+00  0.000000D+00  0.000000D+00
     12  0.000000D+00  0.000000D+00  0.000000D+00  0.000000D+00  0.000000D+00
               11            12 
     11  0.100000D+01
     12  0.000000D+00  0.100000D+01
 Leave Link  716 at Wed Aug 23 10:07:43 2023, MaxMem=  1610612736 cpu:               0.3 elap:               0.0
 (Enter /home/sekinelabo/g16/l103.exe)

 GradGradGradGradGradGradGradGradGradGradGradGradGradGradGradGradGradGrad
 Berny optimization.
 Search for a local minimum.
 Step number   1 out of a maximum of    2
 All quantities printed in internal units (Hartrees-Bohrs-Radians)
 Second derivative matrix not updated -- first step.
 The second derivative matrix:
                          X1        Y1        Z1        X2        Y2
           X1           1.00000
           Y1          -0.00000   1.00000
           Z1           0.00000   0.00000   1.00000
           X2           0.00000   0.00000   0.00000   1.00000
           Y2           0.00000   0.00000   0.00000  -0.00000   1.00000
           Z2           0.00000   0.00000   0.00000   0.00000   0.00000
           X3           0.00000   0.00000   0.00000   0.00000   0.00000
           Y3           0.00000   0.00000   0.00000   0.00000   0.00000
           Z3           0.00000   0.00000   0.00000   0.00000   0.00000
           X4           0.00000   0.00000   0.00000   0.00000   0.00000
           Y4           0.00000   0.00000   0.00000   0.00000   0.00000
           Z4           0.00000   0.00000   0.00000   0.00000   0.00000
                          Z2        X3        Y3        Z3        X4
           Z2           1.00000
           X3           0.00000   1.00000
           Y3           0.00000  -0.00000   1.00000
           Z3           0.00000   0.00000   0.00000   1.00000
           X4           0.00000   0.00000   0.00000   0.00000   1.00000
           Y4           0.00000   0.00000   0.00000   0.00000  -0.00000
           Z4           0.00000   0.00000   0.00000   0.00000   0.00000
                          Y4        Z4
           Y4           1.00000
           Z4           0.00000   1.00000
 ITU=  0
     Eigenvalues ---    1.00000   1.00000   1.00000   1.00000   1.00000
     Eigenvalues ---    1.00000   1.00000   1.00000   1.00000   1.00000
     Eigenvalues ---    1.00000   1.00000
 Angle between quadratic step and forces=   0.00 degrees.
 Linear search not attempted -- first point.
 B after Tr=     0.000000   -0.000000   -0.000000
         Rot=    1.000000    0.000000   -0.000000    0.000000 Ang=   0.00 deg.
 Variable       Old X    -DE/DX   Delta X   Delta X   Delta X     New X
                                 (Linear)    (Quad)   (Total)
    X1        0.00000  -0.00555   0.00000  -0.00555  -0.00555  -0.00555
    Y1       -0.00000  -0.00029   0.00000  -0.00029  -0.00029  -0.00029
    Z1        0.00000   0.00072   0.00000   0.00072   0.00072   0.00072
    X2       -9.20555   0.00552   0.00000   0.00552   0.00552  -9.20003
    Y2       -0.00000   0.00010   0.00000   0.00010   0.00010   0.00010
    Z2       -3.36006   0.00193   0.00000   0.00193   0.00193  -3.35814
    X3        0.00000   0.00331   0.00000   0.00331   0.00331   0.00331
    Y3        0.00000  -0.00640   0.00000  -0.00640  -0.00640  -0.00640
    Z3        9.08139  -0.00435   0.00000  -0.00435  -0.00435   9.07705
    X4        3.72724  -0.00328   0.00000  -0.00328  -0.00328   3.72396
    Y4       -7.22579   0.00659   0.00000   0.00659   0.00659  -7.21920
    Z4        7.00500   0.00170   0.00000   0.00170   0.00170   7.00670
         Item               Value     Threshold  Converged?
 Maximum Force            0.006592     0.000450     NO 
 RMS     Force            0.004015     0.000300     NO 
 Maximum Displacement     0.006592     0.001800     NO 
 RMS     Displacement     0.004015     0.001200     NO 
 Predicted change in Energy=-9.671701D-05
 GradGradGradGradGradGradGradGradGradGradGradGradGradGradGradGradGradGrad

 Leave Link  103 at Wed Aug 23 10:07:43 2023, MaxMem=  1610612736 cpu:               0.1 elap:               0.0
 (Enter /home/sekinelabo/g16/l9999.exe)
 1\1\GINC-SEKINELABO-XA7R-R37\Force\RB3LYP\6-311+G(d)\Na4\SEKINELABO\23
 -Aug-2023\0\\#p B3LYP/6-311+g(d) force\\\0,1\Na,0.,0.,0.\Na,-4.8713663
 366,0.,-1.7780694573\Na,0.,0.,4.8056668065\Na,1.9723714135,-3.82372172
 24,3.7068876055\\Version=ES64L-G16RevB.01\State=1-A\HF=-649.1612284\RM
 SD=2.489e-09\RMSF=4.015e-03\Dipole=0.5035503,-0.2397896,0.7417929\Quad
 rupole=0.8712965,1.6948886,-2.5661851,-3.081877,-1.3823252,3.6194601\P
 G=C01 [X(Na4)]\\@


 IF IT HAPPENS, IT MUST BE POSSIBLE.

 -- THE UNNAMED LAW FROM PAUL DICKSON'S 
    "THE OFFICIAL RULES"
 Job cpu time:       0 days  0 hours  0 minutes 36.1 seconds.
 Elapsed time:       0 days  0 hours  0 minutes  2.5 seconds.
 File lengths (MBytes):  RWF=     10 Int=      0 D2E=      0 Chk=      2 Scr=      1
 Normal termination of Gaussian 16 at Wed Aug 23 10:07:43 2023.
 Initial command:
 /home/sekinelabo/g16/l1.exe "/home/sekinelabo/g16temp/Gau-2966229.inp" -scrdir="/home/sekinelabo/g16temp/"
 Entering Link 1 = /home/sekinelabo/g16/l1.exe PID=   2966473.
  
 Copyright (c) 1988-2017, Gaussian, Inc.  All Rights Reserved.
  
 This is part of the Gaussian(R) 16 program.  It is based on
 the Gaussian(R) 09 system (copyright 2009, Gaussian, Inc.),
 the Gaussian(R) 03 system (copyright 2003, Gaussian, Inc.),
 the Gaussian(R) 98 system (copyright 1998, Gaussian, Inc.),
 the Gaussian(R) 94 system (copyright 1995, Gaussian, Inc.),
 the Gaussian 92(TM) system (copyright 1992, Gaussian, Inc.),
 the Gaussian 90(TM) system (copyright 1990, Gaussian, Inc.),
 the Gaussian 88(TM) system (copyright 1988, Gaussian, Inc.),
 the Gaussian 86(TM) system (copyright 1986, Carnegie Mellon
 University), and the Gaussian 82(TM) system (copyright 1983,
 Carnegie Mellon University). Gaussian is a federally registered
 trademark of Gaussian, Inc.
  
 This software contains proprietary and confidential information,
 including trade secrets, belonging to Gaussian, Inc.
  
 This software is provided under written license and may be
 used, copied, transmitted, or stored only in accord with that
 written license.
  
 The following legend is applicable only to US Government
 contracts under FAR:
  
                    RESTRICTED RIGHTS LEGEND
  
 Use, reproduction and disclosure by the US Government is
 subject to restrictions as set forth in subparagraphs (a)
 and (c) of the Commercial Computer Software - Restricted
 Rights clause in FAR 52.227-19.
  
 Gaussian, Inc.
 340 Quinnipiac St., Bldg. 40, Wallingford CT 06492
  
  
 ---------------------------------------------------------------
 Warning -- This program may not be used in any manner that
 competes with the business of Gaussian, Inc. or will provide
 assistance to any competitor of Gaussian, Inc.  The licensee
 of this program is prohibited from giving any competitor of
 Gaussian, Inc. access to this program.  By using this program,
 the user acknowledges that Gaussian, Inc. is engaged in the
 business of creating and licensing software in the field of
 computational chemistry and represents and warrants to the
 licensee that it is not a competitor of Gaussian, Inc. and that
 it will not use this program in any manner prohibited above.
 ---------------------------------------------------------------
  

 Cite this work as:
 Gaussian 16, Revision B.01,
 M. J. Frisch, G. W. Trucks, H. B. Schlegel, G. E. Scuseria, 
 M. A. Robb, J. R. Cheeseman, G. Scalmani, V. Barone, 
 G. A. Petersson, H. Nakatsuji, X. Li, M. Caricato, A. V. Marenich, 
 J. Bloino, B. G. Janesko, R. Gomperts, B. Mennucci, H. P. Hratchian, 
 J. V. Ortiz, A. F. Izmaylov, J. L. Sonnenberg, D. Williams-Young, 
 F. Ding, F. Lipparini, F. Egidi, J. Goings, B. Peng, A. Petrone, 
 T. Henderson, D. Ranasinghe, V. G. Zakrzewski, J. Gao, N. Rega, 
 G. Zheng, W. Liang, M. Hada, M. Ehara, K. Toyota, R. Fukuda, 
 J. Hasegawa, M. Ishida, T. Nakajima, Y. Honda, O. Kitao, H. Nakai, 
 T. Vreven, K. Throssell, J. A. Montgomery, Jr., J. E. Peralta, 
 F. Ogliaro, M. J. Bearpark, J. J. Heyd, E. N. Brothers, K. N. Kudin, 
 V. N. Staroverov, T. A. Keith, R. Kobayashi, J. Normand, 
 K. Raghavachari, A. P. Rendell, J. C. Burant, S. S. Iyengar, 
 J. Tomasi, M. Cossi, J. M. Millam, M. Klene, C. Adamo, R. Cammi, 
 J. W. Ochterski, R. L. Martin, K. Morokuma, O. Farkas, 
 J. B. Foresman, and D. J. Fox, Gaussian, Inc., Wallingford CT, 2016.
 
 ******************************************
 Gaussian 16:  ES64L-G16RevB.01 20-Dec-2017
                28-Aug-2023 
 ******************************************
 %NProcShared=16
 Will use up to   16 processors via shared memory.
 %mem=12GB
 %Chk=checkpoint.chk
 -------------------------
 #p B3LYP/6-311+g(d) force
 -------------------------
 1/10=7,30=1,38=1/1,3;
 2/12=2,17=6,18=5,40=1/2;
 3/5=4,6=6,7=11,11=2,25=1,30=1,71=1,74=-5/1,2,3;
 4//1;
 5/5=2,38=5/2;
 6/7=2,8=2,9=2,10=2,28=1/1;
 7/29=1/1,2,3,16;
 1/10=7,30=1/3;
 99//99;
 Leave Link    1 at Mon Aug 28 10:18:00 2023, MaxMem=  1610612736 cpu:               0.2 elap:               0.0
 (Enter /home/sekinelabo/g16/l101.exe)


 Symbolic Z-matrix:
 Charge =  0 Multiplicity = 1
 Na                    0.        0.        0. 
 Na                   -4.8354    0.        0.82739 
 Na                    0.        0.        3.62988 
 Na                   -1.6734   -1.79184   3.50758 
 
 ITRead=  0  0  0  0
 MicOpt= -1 -1 -1 -1
 NAtoms=      4 NQM=        4 NQMF=       0 NMMI=      0 NMMIF=      0
                NMic=       0 NMicF=      0.
                    Isotopes and Nuclear Properties:
 (Nuclear quadrupole moments (NQMom) in fm**2, nuclear magnetic moments (NMagM)
  in nuclear magnetons)

  Atom         1           2           3           4
 IAtWgt=          23          23          23          23
 AtmWgt=  22.9897697  22.9897697  22.9897697  22.9897697
 NucSpn=           3           3           3           3
 AtZEff=  -0.0000000  -0.0000000  -0.0000000  -0.0000000
 NQMom=   10.4000000  10.4000000  10.4000000  10.4000000
 NMagM=    2.2175200   2.2175200   2.2175200   2.2175200
 AtZNuc=  11.0000000  11.0000000  11.0000000  11.0000000
 Leave Link  101 at Mon Aug 28 10:18:01 2023, MaxMem=  1610612736 cpu:               1.9 elap:               0.1
 (Enter /home/sekinelabo/g16/l103.exe)

 GradGradGradGradGradGradGradGradGradGradGradGradGradGradGradGradGradGrad
 Berny optimization.
 Initialization pass.
 Trust Radius=3.00D-01 FncErr=1.00D-07 GrdErr=1.00D-07 EigMax=2.50D+02 EigMin=1.00D-04
 Number of steps in this run=      2 maximum allowed number of steps=      2.
 GradGradGradGradGradGradGradGradGradGradGradGradGradGradGradGradGradGrad

 Leave Link  103 at Mon Aug 28 10:18:01 2023, MaxMem=  1610612736 cpu:               0.2 elap:               0.0
 (Enter /home/sekinelabo/g16/l202.exe)
                          Input orientation:                          
 ---------------------------------------------------------------------
 Center     Atomic      Atomic             Coordinates (Angstroms)
 Number     Number       Type             X           Y           Z
 ---------------------------------------------------------------------
      1         11           0        0.000000    0.000000    0.000000
      2         11           0       -4.835402    0.000000    0.827387
      3         11           0        0.000000    0.000000    3.629882
      4         11           0       -1.673404   -1.791839    3.507585
 ---------------------------------------------------------------------
                    Distance matrix (angstroms):
                    1          2          3          4
     1  Na   0.000000
     2  Na   4.905678   0.000000
     3  Na   3.629882   5.588836   0.000000
     4  Na   4.279500   4.515792   2.454776   0.000000
 Stoichiometry    Na4
 Framework group  C1[X(Na4)]
 Deg. of freedom     6
 Full point group                 C1      NOp   1
 Largest Abelian subgroup         C1      NOp   1
 Largest concise Abelian subgroup C1      NOp   1
                         Standard orientation:                         
 ---------------------------------------------------------------------
 Center     Atomic      Atomic             Coordinates (Angstroms)
 Number     Number       Type             X           Y           Z
 ---------------------------------------------------------------------
      1         11           0        0.551293    2.529747   -0.331422
      2         11           0       -3.417553   -0.284815    0.294829
      3         11           0        2.141302   -0.522838    0.821676
      4         11           0        0.724958   -1.722094   -0.785084
 ---------------------------------------------------------------------
 Rotational constants (GHZ):           1.9613505           1.1829763           0.8198236
 Leave Link  202 at Mon Aug 28 10:18:01 2023, MaxMem=  1610612736 cpu:               0.0 elap:               0.0
 (Enter /home/sekinelabo/g16/l301.exe)
 Standard basis: 6-311+G(d) (5D, 7F)
 Ernie: Thresh=  0.10000D-02 Tol=  0.10000D-05 Strict=F.
 There are   124 symmetry adapted cartesian basis functions of A   symmetry.
 There are   120 symmetry adapted basis functions of A   symmetry.
   120 basis functions,   200 primitive gaussians,   124 cartesian basis functions
    22 alpha electrons       22 beta electrons
       nuclear repulsion energy        97.3743582925 Hartrees.
 IExCor=  402 DFT=T Ex+Corr=B3LYP ExCW=0 ScaHFX=  0.200000
 ScaDFX=  0.800000  0.720000  1.000000  0.810000 ScalE2=  1.000000  1.000000
 IRadAn=      5 IRanWt=     -1 IRanGd=            0 ICorTp=0 IEmpDi=  4
 NAtoms=    4 NActive=    4 NUniq=    4 SFac= 1.00D+00 NAtFMM=   60 NAOKFM=F Big=F
 Integral buffers will be    131072 words long.
 Raffenetti 2 integral format.
 Two-electron integral symmetry is turned on.
 Leave Link  301 at Mon Aug 28 10:18:01 2023, MaxMem=  1610612736 cpu:               0.4 elap:               0.0
 (Enter /home/sekinelabo/g16/l302.exe)
 NPDir=0 NMtPBC=     1 NCelOv=     1 NCel=       1 NClECP=     1 NCelD=      1
         NCelK=      1 NCelE2=     1 NClLst=     1 CellRange=     0.0.
 One-electron integrals computed using PRISM.
 One-electron integral symmetry used in STVInt
 NBasis=   120 RedAO= T EigKep=  2.61D-05  NBF=   120
 NBsUse=   120 1.00D-06 EigRej= -1.00D+00 NBFU=   120
 Precomputing XC quadrature grid using
 IXCGrd= 4 IRadAn=           5 IRanWt=          -1 IRanGd=           0 AccXCQ= 0.00D+00.
 Generated NRdTot=       0 NPtTot=           0 NUsed=           0 NTot=          32
 NSgBfM=   117   117   117   117   117 MxSgAt=     4 MxSgA2=     4.
 Leave Link  302 at Mon Aug 28 10:18:01 2023, MaxMem=  1610612736 cpu:               1.3 elap:               0.1
 (Enter /home/sekinelabo/g16/l303.exe)
 DipDrv:  MaxL=1.
 Leave Link  303 at Mon Aug 28 10:18:01 2023, MaxMem=  1610612736 cpu:               0.3 elap:               0.0
 (Enter /home/sekinelabo/g16/l401.exe)
 ExpMin= 7.60D-03 ExpMax= 3.62D+04 ExpMxC= 1.21D+03 IAcc=3 IRadAn=         5 AccDes= 0.00D+00
 Harris functional with IExCor=  402 and IRadAn=       5 diagonalized for initial guess.
 HarFok:  IExCor=  402 AccDes= 0.00D+00 IRadAn=         5 IDoV= 1 UseB2=F ITyADJ=14
 ICtDFT=  3500011 ScaDFX=  1.000000  1.000000  1.000000  1.000000
 FoFCou: FMM=F IPFlag=           0 FMFlag=      100000 FMFlg1=           0
         NFxFlg=           0 DoJE=T BraDBF=F KetDBF=T FulRan=T
         wScrn=  0.000000 ICntrl=       500 IOpCl=  0 I1Cent=   200000004 NGrid=           0
         NMat0=    1 NMatS0=      1 NMatT0=    0 NMatD0=    1 NMtDS0=    0 NMtDT0=    0
 Petite list used in FoFCou.
 Harris En= -649.040204700762    
 JPrj=0 DoOrth=F DoCkMO=F.
 Leave Link  401 at Mon Aug 28 10:18:01 2023, MaxMem=  1610612736 cpu:               2.1 elap:               0.1
 (Enter /home/sekinelabo/g16/l502.exe)
 Keep R1 ints in memory in canonical form, NReq=41581762.
 FoFCou: FMM=F IPFlag=           0 FMFlag=           0 FMFlg1=           0
         NFxFlg=           0 DoJE=F BraDBF=F KetDBF=F FulRan=T
         wScrn=  0.000000 ICntrl=       600 IOpCl=  0 I1Cent=           0 NGrid=           0
         NMat0=    1 NMatS0=   7260 NMatT0=    0 NMatD0=    1 NMtDS0=    0 NMtDT0=    0
 Symmetry not used in FoFCou.
 Two-electron integral symmetry not used.
 Closed shell SCF:
 Using DIIS extrapolation, IDIIS=  1040.
 NGot=  1610612736 LenX=  1584221380 LenY=  1584205563
 Requested convergence on RMS density matrix=1.00D-08 within 128 cycles.
 Requested convergence on MAX density matrix=1.00D-06.
 Requested convergence on             energy=1.00D-06.
 No special actions if energy rises.

 Cycle   1  Pass 1  IDiag  1:
 E= -649.137445966954    
 DIIS: error= 1.04D-02 at cycle   1 NSaved=   1.
 NSaved= 1 IEnMin= 1 EnMin= -649.137445966954     IErMin= 1 ErrMin= 1.04D-02
 ErrMax= 1.04D-02  0.00D+00 EMaxC= 1.00D-01 BMatC= 2.82D-02 BMatP= 2.82D-02
 IDIUse=3 WtCom= 8.96D-01 WtEn= 1.04D-01
 Coeff-Com:  0.100D+01
 Coeff-En:   0.100D+01
 Coeff:      0.100D+01
 Gap=    -0.019 Goal=   None    Shift=    0.000
 GapD=   -0.019 DampG=0.250 DampE=0.500 DampFc=0.2500 IDamp=-1.
 Damping current iteration by 2.50D-01
 RMSDP=1.03D-02 MaxDP=5.74D-01              OVMax= 8.37D-01

 Cycle   2  Pass 1  IDiag  1:
 E= -649.148088317640     Delta-E=       -0.010642350686 Rises=F Damp=T
 DIIS: error= 7.45D-03 at cycle   2 NSaved=   2.
 NSaved= 2 IEnMin= 2 EnMin= -649.148088317640     IErMin= 2 ErrMin= 7.45D-03
 ErrMax= 7.45D-03  0.00D+00 EMaxC= 1.00D-01 BMatC= 1.02D-02 BMatP= 2.82D-02
 IDIUse=3 WtCom= 9.25D-01 WtEn= 7.45D-02
 Coeff-Com: -0.952D+00 0.195D+01
 Coeff-En:   0.312D-01 0.969D+00
 Coeff:     -0.879D+00 0.188D+01
 Gap=    -0.009 Goal=   None    Shift=    0.000
 RMSDP=4.27D-03 MaxDP=2.09D-01 DE=-1.06D-02 OVMax= 8.43D-01

 Cycle   3  Pass 1  IDiag  1:
 E= -649.101217676462     Delta-E=        0.046870641178 Rises=F Damp=F
 DIIS: error= 7.68D-03 at cycle   3 NSaved=   3.
 NSaved= 3 IEnMin= 2 EnMin= -649.148088317640     IErMin= 2 ErrMin= 7.45D-03
 ErrMax= 7.68D-03  0.00D+00 EMaxC= 1.00D-01 BMatC= 7.95D-03 BMatP= 1.02D-02
 IDIUse=3 WtCom= 9.23D-01 WtEn= 7.68D-02
 Rare condition: small coef for last iteration:  0.000D+00
 Coeff-Com: -0.697D+00 0.127D+01 0.425D+00
 Coeff-En:   0.680D-02 0.980D+00 0.132D-01
 Coeff:     -0.697D+00 0.127D+01 0.425D+00
 Gap=     0.005 Goal=   None    Shift=    0.000
 RMSDP=7.26D-03 MaxDP=4.26D-01 DE= 4.69D-02 OVMax= 7.11D-01

 Cycle   4  Pass 1  IDiag  1:
 E= -649.142107383983     Delta-E=       -0.040889707521 Rises=F Damp=F
 DIIS: error= 6.64D-03 at cycle   4 NSaved=   4.
 NSaved= 4 IEnMin= 2 EnMin= -649.148088317640     IErMin= 4 ErrMin= 6.64D-03
 ErrMax= 6.64D-03  0.00D+00 EMaxC= 1.00D-01 BMatC= 2.68D-03 BMatP= 7.95D-03
 IDIUse=3 WtCom= 9.34D-01 WtEn= 6.64D-02
 Coeff-Com: -0.141D+00 0.273D+00 0.342D+00 0.526D+00
 Coeff-En:   0.000D+00 0.000D+00 0.336D+00 0.664D+00
 Coeff:     -0.132D+00 0.255D+00 0.341D+00 0.536D+00
 Gap=     0.011 Goal=   None    Shift=    0.000
 RMSDP=4.10D-03 MaxDP=1.90D-01 DE=-4.09D-02 OVMax= 4.19D-01

 Cycle   5  Pass 1  IDiag  1:
 E= -649.161182456214     Delta-E=       -0.019075072231 Rises=F Damp=F
 DIIS: error= 2.05D-03 at cycle   5 NSaved=   5.
 NSaved= 5 IEnMin= 5 EnMin= -649.161182456214     IErMin= 5 ErrMin= 2.05D-03
 ErrMax= 2.05D-03  0.00D+00 EMaxC= 1.00D-01 BMatC= 4.80D-04 BMatP= 2.68D-03
 IDIUse=3 WtCom= 9.80D-01 WtEn= 2.05D-02
 Coeff-Com: -0.868D-01 0.121D+00 0.108D-01 0.241D+00 0.715D+00
 Coeff-En:   0.000D+00 0.000D+00 0.000D+00 0.232D+00 0.768D+00
 Coeff:     -0.850D-01 0.118D+00 0.105D-01 0.240D+00 0.716D+00
 Gap=     0.018 Goal=   None    Shift=    0.000
 RMSDP=1.39D-03 MaxDP=6.82D-02 DE=-1.91D-02 OVMax= 1.23D-01

 Cycle   6  Pass 1  IDiag  1:
 E= -649.164911573945     Delta-E=       -0.003729117731 Rises=F Damp=F
 DIIS: error= 5.30D-04 at cycle   6 NSaved=   6.
 NSaved= 6 IEnMin= 6 EnMin= -649.164911573945     IErMin= 6 ErrMin= 5.30D-04
 ErrMax= 5.30D-04  0.00D+00 EMaxC= 1.00D-01 BMatC= 2.72D-05 BMatP= 4.80D-04
 IDIUse=3 WtCom= 9.95D-01 WtEn= 5.30D-03
 Coeff-Com: -0.432D-01 0.580D-01-0.180D-01 0.704D-01 0.259D+00 0.674D+00
 Coeff-En:   0.000D+00 0.000D+00 0.000D+00 0.000D+00 0.000D+00 0.100D+01
 Coeff:     -0.430D-01 0.577D-01-0.179D-01 0.701D-01 0.258D+00 0.675D+00
 Gap=     0.020 Goal=   None    Shift=    0.000
 RMSDP=3.10D-04 MaxDP=1.09D-02 DE=-3.73D-03 OVMax= 3.01D-02

 Cycle   7  Pass 1  IDiag  1:
 E= -649.164888252007     Delta-E=        0.000023321938 Rises=F Damp=F
 DIIS: error= 4.27D-04 at cycle   7 NSaved=   7.
 NSaved= 7 IEnMin= 6 EnMin= -649.164911573945     IErMin= 7 ErrMin= 4.27D-04
 ErrMax= 4.27D-04  0.00D+00 EMaxC= 1.00D-01 BMatC= 1.98D-05 BMatP= 2.72D-05
 IDIUse=3 WtCom= 9.96D-01 WtEn= 4.27D-03
 Coeff-Com: -0.160D-01 0.211D-01-0.853D-02 0.303D-01-0.314D-01 0.287D+00
 Coeff-Com:  0.717D+00
 Coeff-En:   0.000D+00 0.000D+00 0.000D+00 0.000D+00 0.000D+00 0.583D+00
 Coeff-En:   0.417D+00
 Coeff:     -0.159D-01 0.210D-01-0.849D-02 0.302D-01-0.313D-01 0.288D+00
 Coeff:      0.716D+00
 Gap=     0.020 Goal=   None    Shift=    0.000
 RMSDP=1.23D-04 MaxDP=4.36D-03 DE= 2.33D-05 OVMax= 8.37D-03

 Cycle   8  Pass 1  IDiag  1:
 E= -649.164962799707     Delta-E=       -0.000074547700 Rises=F Damp=F
 DIIS: error= 3.02D-04 at cycle   8 NSaved=   8.
 NSaved= 8 IEnMin= 8 EnMin= -649.164962799707     IErMin= 8 ErrMin= 3.02D-04
 ErrMax= 3.02D-04  0.00D+00 EMaxC= 1.00D-01 BMatC= 7.25D-06 BMatP= 1.98D-05
 IDIUse=3 WtCom= 9.97D-01 WtEn= 3.02D-03
 Coeff-Com: -0.614D-02 0.816D-02-0.528D-02 0.231D-01-0.625D-01 0.605D-01
 Coeff-Com:  0.255D+00 0.727D+00
 Coeff-En:   0.000D+00 0.000D+00 0.000D+00 0.000D+00 0.000D+00 0.873D-01
 Coeff-En:   0.000D+00 0.913D+00
 Coeff:     -0.612D-02 0.814D-02-0.526D-02 0.230D-01-0.624D-01 0.606D-01
 Coeff:      0.254D+00 0.728D+00
 Gap=     0.020 Goal=   None    Shift=    0.000
 RMSDP=7.43D-05 MaxDP=3.84D-03 DE=-7.45D-05 OVMax= 6.33D-03

 Cycle   9  Pass 1  IDiag  1:
 E= -649.165004928322     Delta-E=       -0.000042128615 Rises=F Damp=F
 DIIS: error= 1.40D-04 at cycle   9 NSaved=   9.
 NSaved= 9 IEnMin= 9 EnMin= -649.165004928322     IErMin= 9 ErrMin= 1.40D-04
 ErrMax= 1.40D-04  0.00D+00 EMaxC= 1.00D-01 BMatC= 1.84D-06 BMatP= 7.25D-06
 IDIUse=3 WtCom= 9.99D-01 WtEn= 1.40D-03
 Coeff-Com: -0.101D-02 0.127D-02-0.148D-02 0.932D-02-0.339D-01-0.272D-01
 Coeff-Com: -0.244D-01-0.230D-02 0.108D+01
 Coeff-En:   0.000D+00 0.000D+00 0.000D+00 0.000D+00 0.000D+00 0.000D+00
 Coeff-En:   0.000D+00 0.000D+00 0.100D+01
 Coeff:     -0.100D-02 0.127D-02-0.148D-02 0.930D-02-0.338D-01-0.272D-01
 Coeff:     -0.244D-01-0.230D-02 0.108D+01
 Gap=     0.020 Goal=   None    Shift=    0.000
 RMSDP=4.84D-05 MaxDP=2.30D-03 DE=-4.21D-05 OVMax= 3.38D-03

 Cycle  10  Pass 1  IDiag  1:
 E= -649.165015812696     Delta-E=       -0.000010884374 Rises=F Damp=F
 DIIS: error= 5.76D-05 at cycle  10 NSaved=  10.
 NSaved=10 IEnMin=10 EnMin= -649.165015812696     IErMin=10 ErrMin= 5.76D-05
 ErrMax= 5.76D-05  0.00D+00 EMaxC= 1.00D-01 BMatC= 2.94D-07 BMatP= 1.84D-06
 IDIUse=1 WtCom= 1.00D+00 WtEn= 0.00D+00
 Coeff-Com: -0.848D-03 0.114D-02-0.202D-03 0.207D-02-0.542D-02 0.172D-02
 Coeff-Com:  0.135D-02-0.189D+00 0.146D+00 0.104D+01
 Coeff:     -0.848D-03 0.114D-02-0.202D-03 0.207D-02-0.542D-02 0.172D-02
 Coeff:      0.135D-02-0.189D+00 0.146D+00 0.104D+01
 Gap=     0.020 Goal=   None    Shift=    0.000
 RMSDP=2.30D-05 MaxDP=1.17D-03 DE=-1.09D-05 OVMax= 1.85D-03

 Cycle  11  Pass 1  IDiag  1:
 E= -649.165017902660     Delta-E=       -0.000002089965 Rises=F Damp=F
 DIIS: error= 1.41D-05 at cycle  11 NSaved=  11.
 NSaved=11 IEnMin=11 EnMin= -649.165017902660     IErMin=11 ErrMin= 1.41D-05
 ErrMax= 1.41D-05  0.00D+00 EMaxC= 1.00D-01 BMatC= 1.79D-08 BMatP= 2.94D-07
 IDIUse=1 WtCom= 1.00D+00 WtEn= 0.00D+00
 Coeff-Com: -0.239D-03 0.320D-03-0.932D-05 0.292D-03-0.668D-04 0.546D-02
 Coeff-Com:  0.113D-01-0.619D-01-0.595D-01 0.174D+00 0.930D+00
 Coeff:     -0.239D-03 0.320D-03-0.932D-05 0.292D-03-0.668D-04 0.546D-02
 Coeff:      0.113D-01-0.619D-01-0.595D-01 0.174D+00 0.930D+00
 Gap=     0.020 Goal=   None    Shift=    0.000
 RMSDP=5.61D-06 MaxDP=3.05D-04 DE=-2.09D-06 OVMax= 4.59D-04

 Cycle  12  Pass 1  IDiag  1:
 E= -649.165018029281     Delta-E=       -0.000000126621 Rises=F Damp=F
 DIIS: error= 3.06D-06 at cycle  12 NSaved=  12.
 NSaved=12 IEnMin=12 EnMin= -649.165018029281     IErMin=12 ErrMin= 3.06D-06
 ErrMax= 3.06D-06  0.00D+00 EMaxC= 1.00D-01 BMatC= 8.74D-10 BMatP= 1.79D-08
 IDIUse=1 WtCom= 1.00D+00 WtEn= 0.00D+00
 Coeff-Com:  0.288D-04-0.392D-04 0.721D-05-0.597D-04 0.317D-03 0.383D-03
 Coeff-Com: -0.171D-03 0.238D-02-0.153D-01-0.735D-01 0.109D+00 0.977D+00
 Coeff:      0.288D-04-0.392D-04 0.721D-05-0.597D-04 0.317D-03 0.383D-03
 Coeff:     -0.171D-03 0.238D-02-0.153D-01-0.735D-01 0.109D+00 0.977D+00
 Gap=     0.020 Goal=   None    Shift=    0.000
 RMSDP=1.84D-06 MaxDP=9.74D-05 DE=-1.27D-07 OVMax= 1.48D-04

 Cycle  13  Pass 1  IDiag  1:
 E= -649.165018035734     Delta-E=       -0.000000006453 Rises=F Damp=F
 DIIS: error= 4.92D-07 at cycle  13 NSaved=  13.
 NSaved=13 IEnMin=13 EnMin= -649.165018035734     IErMin=13 ErrMin= 4.92D-07
 ErrMax= 4.92D-07  0.00D+00 EMaxC= 1.00D-01 BMatC= 1.54D-11 BMatP= 8.74D-10
 IDIUse=1 WtCom= 1.00D+00 WtEn= 0.00D+00
 Coeff-Com:  0.985D-05-0.133D-04-0.504D-06-0.893D-05 0.198D-04-0.929D-04
 Coeff-Com: -0.496D-03 0.338D-02 0.108D-03-0.171D-01-0.245D-01 0.243D+00
 Coeff-Com:  0.796D+00
 Coeff:      0.985D-05-0.133D-04-0.504D-06-0.893D-05 0.198D-04-0.929D-04
 Coeff:     -0.496D-03 0.338D-02 0.108D-03-0.171D-01-0.245D-01 0.243D+00
 Coeff:      0.796D+00
 Gap=     0.020 Goal=   None    Shift=    0.000
 RMSDP=2.40D-07 MaxDP=9.10D-06 DE=-6.45D-09 OVMax= 1.72D-05

 Cycle  14  Pass 1  IDiag  1:
 E= -649.165018035851     Delta-E=       -0.000000000117 Rises=F Damp=F
 DIIS: error= 8.06D-08 at cycle  14 NSaved=  14.
 NSaved=14 IEnMin=14 EnMin= -649.165018035851     IErMin=14 ErrMin= 8.06D-08
 ErrMax= 8.06D-08  0.00D+00 EMaxC= 1.00D-01 BMatC= 4.50D-13 BMatP= 1.54D-11
 IDIUse=1 WtCom= 1.00D+00 WtEn= 0.00D+00
 Coeff-Com:  0.251D-06-0.616D-07-0.133D-05-0.274D-05-0.795D-05-0.743D-04
 Coeff-Com: -0.152D-03 0.797D-03 0.194D-02 0.223D-02-0.219D-01-0.338D-01
 Coeff-Com:  0.266D+00 0.785D+00
 Coeff:      0.251D-06-0.616D-07-0.133D-05-0.274D-05-0.795D-05-0.743D-04
 Coeff:     -0.152D-03 0.797D-03 0.194D-02 0.223D-02-0.219D-01-0.338D-01
 Coeff:      0.266D+00 0.785D+00
 Gap=     0.020 Goal=   None    Shift=    0.000
 RMSDP=8.66D-08 MaxDP=2.51D-06 DE=-1.17D-10 OVMax= 7.77D-06

 Cycle  15  Pass 1  IDiag  1:
 E= -649.165018035847     Delta-E=        0.000000000004 Rises=F Damp=F
 DIIS: error= 6.14D-08 at cycle  15 NSaved=  15.
 NSaved=15 IEnMin=14 EnMin= -649.165018035851     IErMin=15 ErrMin= 6.14D-08
 ErrMax= 6.14D-08  0.00D+00 EMaxC= 1.00D-01 BMatC= 3.00D-13 BMatP= 4.50D-13
 IDIUse=1 WtCom= 1.00D+00 WtEn= 0.00D+00
 Coeff-Com: -0.821D-06 0.108D-05 0.526D-06-0.181D-05 0.148D-06-0.900D-05
 Coeff-Com: -0.314D-05-0.268D-03 0.302D-03 0.306D-02-0.358D-02-0.484D-01
 Coeff-Com: -0.162D-01 0.165D+00 0.900D+00
 Coeff:     -0.821D-06 0.108D-05 0.526D-06-0.181D-05 0.148D-06-0.900D-05
 Coeff:     -0.314D-05-0.268D-03 0.302D-03 0.306D-02-0.358D-02-0.484D-01
 Coeff:     -0.162D-01 0.165D+00 0.900D+00
 Gap=     0.020 Goal=   None    Shift=    0.000
 RMSDP=3.90D-08 MaxDP=1.63D-06 DE= 4.32D-12 OVMax= 2.73D-06

 Cycle  16  Pass 1  IDiag  1:
 E= -649.165018035852     Delta-E=       -0.000000000005 Rises=F Damp=F
 DIIS: error= 2.87D-09 at cycle  16 NSaved=  16.
 NSaved=16 IEnMin=16 EnMin= -649.165018035852     IErMin=16 ErrMin= 2.87D-09
 ErrMax= 2.87D-09  0.00D+00 EMaxC= 1.00D-01 BMatC= 1.45D-15 BMatP= 3.00D-13
 IDIUse=1 WtCom= 1.00D+00 WtEn= 0.00D+00
 Large coefficients: NSaved= 16 BigCof=    0.00 CofMax=   10.00 Det=-9.43D-15
 Inversion failed.  Reducing to 15 matrices.
 Coeff-Com:  0.803D-07-0.120D-06-0.138D-06-0.235D-05 0.158D-05 0.897D-06
 Coeff-Com: -0.515D-04-0.282D-04 0.283D-04 0.894D-03-0.846D-03-0.207D-01
 Coeff-Com: -0.300D-01 0.170D-01 0.103D+01
 Coeff:      0.803D-07-0.120D-06-0.138D-06-0.235D-05 0.158D-05 0.897D-06
 Coeff:     -0.515D-04-0.282D-04 0.283D-04 0.894D-03-0.846D-03-0.207D-01
 Coeff:     -0.300D-01 0.170D-01 0.103D+01
 Gap=     0.020 Goal=   None    Shift=    0.000
 RMSDP=7.18D-09 MaxDP=1.85D-07 DE=-5.00D-12 OVMax= 5.37D-07

 SCF Done:  E(RB3LYP) =  -649.165018036     A.U. after   16 cycles
            NFock= 16  Conv=0.72D-08     -V/T= 2.0028
 KE= 6.473784927626D+02 PE=-1.753716580951D+03 EE= 3.597987118602D+02
 Leave Link  502 at Mon Aug 28 10:18:03 2023, MaxMem=  1610612736 cpu:              25.0 elap:               1.8
 (Enter /home/sekinelabo/g16/l601.exe)
 Copying SCF densities to generalized density rwf, IOpCl= 0 IROHF=0.

 **********************************************************************

            Population analysis using the SCF Density.

 **********************************************************************

 Orbital symmetries:
       Occupied  (A) (A) (A) (A) (A) (A) (A) (A) (A) (A) (A) (A)
                 (A) (A) (A) (A) (A) (A) (A) (A) (A) (A)
       Virtual   (A) (A) (A) (A) (A) (A) (A) (A) (A) (A) (A) (A)
                 (A) (A) (A) (A) (A) (A) (A) (A) (A) (A) (A) (A)
                 (A) (A) (A) (A) (A) (A) (A) (A) (A) (A) (A) (A)
                 (A) (A) (A) (A) (A) (A) (A) (A) (A) (A) (A) (A)
                 (A) (A) (A) (A) (A) (A) (A) (A) (A) (A) (A) (A)
                 (A) (A) (A) (A) (A) (A) (A) (A) (A) (A) (A) (A)
                 (A) (A) (A) (A) (A) (A) (A) (A) (A) (A) (A) (A)
                 (A) (A) (A) (A) (A) (A) (A) (A) (A) (A) (A) (A)
                 (A) (A)
 The electronic state is 1-A.
 Alpha  occ. eigenvalues --  -38.46893 -38.45987 -38.44381 -38.44325  -2.22595
 Alpha  occ. eigenvalues --   -2.21900  -2.20321  -2.20031  -1.16290  -1.16248
 Alpha  occ. eigenvalues --   -1.16226  -1.15978  -1.15495  -1.15438  -1.13974
 Alpha  occ. eigenvalues --   -1.13895  -1.13871  -1.13721  -1.13707  -1.13662
 Alpha  occ. eigenvalues --   -0.15675  -0.10402
 Alpha virt. eigenvalues --   -0.08402  -0.05088  -0.03370  -0.03058  -0.01986
 Alpha virt. eigenvalues --   -0.01180  -0.00905  -0.00292  -0.00063   0.00081
 Alpha virt. eigenvalues --    0.00596   0.00893   0.00967   0.01280   0.01320
 Alpha virt. eigenvalues --    0.01560   0.01702   0.01859   0.01940   0.02120
 Alpha virt. eigenvalues --    0.02226   0.02396   0.02445   0.02633   0.02948
 Alpha virt. eigenvalues --    0.03172   0.03204   0.03766   0.04024   0.05226
 Alpha virt. eigenvalues --    0.05695   0.06475   0.07140   0.07755   0.07825
 Alpha virt. eigenvalues --    0.08440   0.08716   0.09282   0.09540   0.10176
 Alpha virt. eigenvalues --    0.10442   0.11161   0.11674   0.12240   0.12853
 Alpha virt. eigenvalues --    0.16646   0.27594   0.28387   0.29531   0.29927
 Alpha virt. eigenvalues --    0.32959   0.33306   0.34499   0.34706   0.34852
 Alpha virt. eigenvalues --    0.35907   0.36151   0.36201   0.37465   0.38204
 Alpha virt. eigenvalues --    0.39168   0.41414   0.42202   0.42473   0.43223
 Alpha virt. eigenvalues --    0.43988   0.44565   0.44975   0.45701   0.47108
 Alpha virt. eigenvalues --    0.48234   0.48595   0.49826   0.51274   0.53689
 Alpha virt. eigenvalues --    0.56830   0.59214   0.90240   2.02812   2.03433
 Alpha virt. eigenvalues --    2.06160   2.14198   4.42379   4.42719   4.42843
 Alpha virt. eigenvalues --    4.43192   4.44707   4.45003   4.45381   4.46253
 Alpha virt. eigenvalues --    4.48476   4.49874   4.50791   4.80987  96.22458
 Alpha virt. eigenvalues --   96.23375  96.27524  96.36314
          Condensed to atoms (all electrons):
               1          2          3          4
     1  Na  10.873420   0.307302  -0.147707  -0.030625
     2  Na   0.307302  11.215228  -0.251133  -0.150269
     3  Na  -0.147707  -0.251133  10.820058   0.471978
     4  Na  -0.030625  -0.150269   0.471978  10.692202
 Mulliken charges:
               1
     1  Na  -0.002391
     2  Na  -0.121127
     3  Na   0.106804
     4  Na   0.016714
 Sum of Mulliken charges =  -0.00000
 Mulliken charges with hydrogens summed into heavy atoms:
               1
     1  Na  -0.002391
     2  Na  -0.121127
     3  Na   0.106804
     4  Na   0.016714
 Electronic spatial extent (au):  <R**2>=           1205.4836
 Charge=             -0.0000 electrons
 Dipole moment (field-independent basis, Debye):
    X=              1.4555    Y=              0.5234    Z=             -0.3017  Tot=              1.5759
 Quadrupole moment (field-independent basis, Debye-Ang):
   XX=            -49.3666   YY=            -36.1974   ZZ=            -40.4932
   XY=             11.4717   XZ=              1.2476   YZ=              1.5541
 Traceless Quadrupole moment (field-independent basis, Debye-Ang):
   XX=             -7.3475   YY=              5.8216   ZZ=              1.5258
   XY=             11.4717   XZ=              1.2476   YZ=              1.5541
 Octapole moment (field-independent basis, Debye-Ang**2):
  XXX=             19.4958  YYY=             14.1154  ZZZ=             -2.3821  XYY=             12.5003
  XXY=              7.0632  XXZ=             10.9900  XZZ=             12.3543  YZZ=             -4.0050
  YYZ=            -11.0009  XYZ=             -1.0341
 Hexadecapole moment (field-independent basis, Debye-Ang**3):
 XXXX=          -1435.9249 YYYY=           -717.2219 ZZZZ=           -247.0150 XXXY=             92.3850
 XXXZ=             12.4235 YYYX=            107.3444 YYYZ=             12.0622 ZZZX=              8.9915
 ZZZY=             11.1312 XXYY=           -391.0007 XXZZ=           -278.1909 YYZZ=           -163.5180
 XXYZ=             -2.4128 YYXZ=             -4.5707 ZZXY=             19.6379
 N-N= 9.737435829246D+01 E-N=-1.753716580778D+03  KE= 6.473784927626D+02
 No NMR shielding tensors so no spin-rotation constants.
 Leave Link  601 at Mon Aug 28 10:18:03 2023, MaxMem=  1610612736 cpu:               0.9 elap:               0.1
 (Enter /home/sekinelabo/g16/l701.exe)
 ... and contract with generalized density number  0.
 Compute integral first derivatives.
 Leave Link  701 at Mon Aug 28 10:18:03 2023, MaxMem=  1610612736 cpu:               1.2 elap:               0.1
 (Enter /home/sekinelabo/g16/l702.exe)
 L702 exits ... SP integral derivatives will be done elsewhere.
 Leave Link  702 at Mon Aug 28 10:18:03 2023, MaxMem=  1610612736 cpu:               0.5 elap:               0.0
 (Enter /home/sekinelabo/g16/l703.exe)
 Integral derivatives from FoFJK, PRISM(SPDF).
 Compute integral first derivatives, UseDBF=F ICtDFT=           0.
 Calling FoFJK, ICntrl=      2127 FMM=F ISym2X=0 I1Cent= 0 IOpClX= 0 NMat=1 NMatS=1 NMatT=0.
 FoFJK:  IHMeth= 1 ICntrl=    2127 DoSepK=F KAlg= 0 I1Cent=           0 FoldK=F
 IRaf=         0 NMat=       1 IRICut=       1 DoRegI=T DoRafI=F ISym2E= 0 IDoP0=0 IntGTp=1.
 FoFCou: FMM=F IPFlag=           0 FMFlag=      100000 FMFlg1=         800
         NFxFlg=           0 DoJE=F BraDBF=F KetDBF=F FulRan=T
         wScrn=  0.000000 ICntrl=      2127 IOpCl=  0 I1Cent=           0 NGrid=           0
         NMat0=    1 NMatS0=      1 NMatT0=    0 NMatD0=    1 NMtDS0=    0 NMtDT0=    0
 Symmetry not used in FoFCou.
 Leave Link  703 at Mon Aug 28 10:18:03 2023, MaxMem=  1610612736 cpu:               6.5 elap:               0.4
 (Enter /home/sekinelabo/g16/l716.exe)
 Dipole        = 5.72650613D-01 2.05930841D-01-1.18711367D-01
 ***** Axes restored to original set *****
 -------------------------------------------------------------------
 Center     Atomic                   Forces (Hartrees/Bohr)
 Number     Number              X              Y              Z
 -------------------------------------------------------------------
      1       11          -0.008251963   -0.001028221    0.001346558
      2       11           0.004471093    0.000575744   -0.003154585
      3       11           0.016291262    0.015512011    0.004019855
      4       11          -0.012510391   -0.015059533   -0.002211828
 -------------------------------------------------------------------
 Cartesian Forces:  Max     0.016291262 RMS     0.009181582
 Z-matrix is all fixed cartesians, so copy forces.
 Force constants in Cartesian coordinates: 
                1             2             3             4             5 
      1  0.247522D-02
      2  0.265041D-02  0.283799D-02
      3  0.000000D+00  0.000000D+00  0.157630D-01
      4  0.000000D+00  0.000000D+00  0.000000D+00  0.100000D+01
      5  0.000000D+00  0.000000D+00  0.000000D+00  0.000000D+00  0.100000D+01
      6  0.000000D+00  0.000000D+00  0.000000D+00  0.000000D+00  0.000000D+00
      7 -0.229288D-02 -0.245515D-02  0.000000D+00  0.000000D+00  0.000000D+00
      8 -0.245515D-02 -0.262892D-02  0.000000D+00  0.000000D+00  0.000000D+00
      9 -0.535583D-02 -0.573489D-02 -0.157630D-01  0.000000D+00  0.000000D+00
     10 -0.182348D-03 -0.195253D-03  0.000000D+00  0.000000D+00  0.000000D+00
     11 -0.195253D-03 -0.209072D-03  0.000000D+00  0.000000D+00  0.000000D+00
     12  0.535583D-02  0.573489D-02  0.000000D+00  0.000000D+00  0.000000D+00
                6             7             8             9            10 
      6  0.100000D+01
      7  0.000000D+00  0.495476D-01
      8  0.000000D+00  0.530543D-01  0.568092D-01
      9  0.000000D+00  0.842713D-02  0.902355D-02  0.276051D-01
     10  0.000000D+00 -0.472547D-01 -0.505991D-01 -0.307130D-02  0.474371D-01
     11  0.000000D+00 -0.505991D-01 -0.541803D-01 -0.328867D-02  0.507944D-01
     12  0.000000D+00 -0.842713D-02 -0.902355D-02 -0.118421D-01  0.307130D-02
               11            12 
     11  0.543893D-01
     12  0.328867D-02  0.118421D-01
 Leave Link  716 at Mon Aug 28 10:18:03 2023, MaxMem=  1610612736 cpu:               0.3 elap:               0.0
 (Enter /home/sekinelabo/g16/l103.exe)

 GradGradGradGradGradGradGradGradGradGradGradGradGradGradGradGradGradGrad
 Berny optimization.
 Search for a local minimum.
 Step number   1 out of a maximum of    2
 All quantities printed in internal units (Hartrees-Bohrs-Radians)
 Second derivative matrix not updated -- first step.
 The second derivative matrix:
                          X1        Y1        Z1        X2        Y2
           X1           0.00248
           Y1           0.00265   0.00284
           Z1           0.00000   0.00000   0.01576
           X2           0.00000   0.00000   0.00000   1.00000
           Y2           0.00000   0.00000   0.00000  -0.00000   1.00000
           Z2           0.00000   0.00000   0.00000   0.00000   0.00000
           X3          -0.00229  -0.00246  -0.00000   0.00000   0.00000
           Y3          -0.00246  -0.00263  -0.00000   0.00000   0.00000
           Z3          -0.00536  -0.00573  -0.01576   0.00000   0.00000
           X4          -0.00018  -0.00020  -0.00000   0.00000   0.00000
           Y4          -0.00020  -0.00021   0.00000   0.00000   0.00000
           Z4           0.00536   0.00573   0.00000   0.00000   0.00000
                          Z2        X3        Y3        Z3        X4
           Z2           1.00000
           X3           0.00000   0.04955
           Y3           0.00000   0.05305   0.05681
           Z3           0.00000   0.00843   0.00902   0.02761
           X4           0.00000  -0.04725  -0.05060  -0.00307   0.04744
           Y4           0.00000  -0.05060  -0.05418  -0.00329   0.05079
           Z4           0.00000  -0.00843  -0.00902  -0.01184   0.00307
                          Y4        Z4
           Y4           0.05439
           Z4           0.00329   0.01184
 ITU=  0
     Eigenvalues ---    0.01756   0.04386   0.10949   0.20729   0.30371
     Eigenvalues ---    0.75000
 Angle between quadratic step and forces=  48.59 degrees.
 Linear search not attempted -- first point.
 B after Tr=     0.000000   -0.000000    0.000000
         Rot=    1.000000    0.000000    0.000000    0.000000 Ang=   0.00 deg.
 Variable       Old X    -DE/DX   Delta X   Delta X   Delta X     New X
                                 (Linear)    (Quad)   (Total)
    X1       -0.00000  -0.00825   0.00000  -0.08892  -0.08892  -0.08892
    Y1       -0.00000  -0.00103   0.00000  -0.06873  -0.06873  -0.06873
    Z1        0.00000   0.00135   0.00000   0.11396   0.11396   0.11396
    X2       -9.13759   0.00447   0.00000   0.00917   0.00917  -9.12842
    Y2        0.00000   0.00058   0.00000   0.00010   0.00010   0.00010
    Z2        1.56353  -0.00315   0.00000  -0.01330  -0.01330   1.55023
    X3        0.00000   0.01629   0.00000   0.10714   0.10714   0.10714
    Y3        0.00000   0.01551   0.00000   0.09824   0.09824   0.09824
    Z3        6.85948   0.00402   0.00000   0.04044   0.04044   6.89992
    X4       -3.16228  -0.01251   0.00000  -0.02738  -0.02738  -3.18966
    Y4       -3.38608  -0.01506   0.00000  -0.02960  -0.02960  -3.41569
    Z4        6.62837  -0.00221   0.00000  -0.14110  -0.14110   6.48727
         Item               Value     Threshold  Converged?
 Maximum Force            0.016291     0.000450     NO 
 RMS     Force            0.009182     0.000300     NO 
 Maximum Displacement     0.141100     0.001800     NO 
 RMS     Displacement     0.076475     0.001200     NO 
 Predicted change in Energy=-2.786680D-03
 GradGradGradGradGradGradGradGradGradGradGradGradGradGradGradGradGradGrad

 Leave Link  103 at Mon Aug 28 10:18:03 2023, MaxMem=  1610612736 cpu:               0.2 elap:               0.0
 (Enter /home/sekinelabo/g16/l9999.exe)
 1\1\GINC-SEKINELABO-XA7R-R37\Force\RB3LYP\6-311+G(d)\Na4\SEKINELABO\28
 -Aug-2023\0\\#p B3LYP/6-311+g(d) force\\\0,1\Na,0.,0.,0.\Na,-4.8354019
 627,0.,0.8273868781\Na,0.,0.,3.6298820352\Na,-1.6734044678,-1.79183878
 94,3.5075848112\\Version=ES64L-G16RevB.01\State=1-A\HF=-649.165018\RMS
 D=7.176e-09\RMSF=9.182e-03\Dipole=0.6121029,-0.0903474,0.0399497\Quadr
 upole=2.9485467,1.5669072,-4.5154539,4.2763208,-8.0857992,0.6577339\PG
 =C01 [X(Na4)]\\@


 THE LENGTH OF A MEETING IS PROPORTIONAL TO THE
 SQUARE OF THE PARTICIPANTS.
 Job cpu time:       0 days  0 hours  0 minutes 41.3 seconds.
 Elapsed time:       0 days  0 hours  0 minutes  2.8 seconds.
 File lengths (MBytes):  RWF=     10 Int=      0 D2E=      0 Chk=      2 Scr=      1
 Normal termination of Gaussian 16 at Mon Aug 28 10:18:03 2023.
