 Initial command:
 /home/sekinelabo/g16/l1.exe "/home/sekinelabo/g16temp/Gau-19052.inp" -scrdir="/home/sekinelabo/g16temp/"
 Entering Link 1 = /home/sekinelabo/g16/l1.exe PID=     20786.
  
 Copyright (c) 1988-2017, Gaussian, Inc.  All Rights Reserved.
  
 This is part of the Gaussian(R) 16 program.  It is based on
 the Gaussian(R) 09 system (copyright 2009, Gaussian, Inc.),
 the Gaussian(R) 03 system (copyright 2003, Gaussian, Inc.),
 the Gaussian(R) 98 system (copyright 1998, Gaussian, Inc.),
 the Gaussian(R) 94 system (copyright 1995, Gaussian, Inc.),
 the Gaussian 92(TM) system (copyright 1992, Gaussian, Inc.),
 the Gaussian 90(TM) system (copyright 1990, Gaussian, Inc.),
 the Gaussian 88(TM) system (copyright 1988, Gaussian, Inc.),
 the Gaussian 86(TM) system (copyright 1986, Carnegie Mellon
 University), and the Gaussian 82(TM) system (copyright 1983,
 Carnegie Mellon University). Gaussian is a federally registered
 trademark of Gaussian, Inc.
  
 This software contains proprietary and confidential information,
 including trade secrets, belonging to Gaussian, Inc.
  
 This software is provided under written license and may be
 used, copied, transmitted, or stored only in accord with that
 written license.
  
 The following legend is applicable only to US Government
 contracts under FAR:
  
                    RESTRICTED RIGHTS LEGEND
  
 Use, reproduction and disclosure by the US Government is
 subject to restrictions as set forth in subparagraphs (a)
 and (c) of the Commercial Computer Software - Restricted
 Rights clause in FAR 52.227-19.
  
 Gaussian, Inc.
 340 Quinnipiac St., Bldg. 40, Wallingford CT 06492
  
  
 ---------------------------------------------------------------
 Warning -- This program may not be used in any manner that
 competes with the business of Gaussian, Inc. or will provide
 assistance to any competitor of Gaussian, Inc.  The licensee
 of this program is prohibited from giving any competitor of
 Gaussian, Inc. access to this program.  By using this program,
 the user acknowledges that Gaussian, Inc. is engaged in the
 business of creating and licensing software in the field of
 computational chemistry and represents and warrants to the
 licensee that it is not a competitor of Gaussian, Inc. and that
 it will not use this program in any manner prohibited above.
 ---------------------------------------------------------------
  

 Cite this work as:
 Gaussian 16, Revision B.01,
 M. J. Frisch, G. W. Trucks, H. B. Schlegel, G. E. Scuseria, 
 M. A. Robb, J. R. Cheeseman, G. Scalmani, V. Barone, 
 G. A. Petersson, H. Nakatsuji, X. Li, M. Caricato, A. V. Marenich, 
 J. Bloino, B. G. Janesko, R. Gomperts, B. Mennucci, H. P. Hratchian, 
 J. V. Ortiz, A. F. Izmaylov, J. L. Sonnenberg, D. Williams-Young, 
 F. Ding, F. Lipparini, F. Egidi, J. Goings, B. Peng, A. Petrone, 
 T. Henderson, D. Ranasinghe, V. G. Zakrzewski, J. Gao, N. Rega, 
 G. Zheng, W. Liang, M. Hada, M. Ehara, K. Toyota, R. Fukuda, 
 J. Hasegawa, M. Ishida, T. Nakajima, Y. Honda, O. Kitao, H. Nakai, 
 T. Vreven, K. Throssell, J. A. Montgomery, Jr., J. E. Peralta, 
 F. Ogliaro, M. J. Bearpark, J. J. Heyd, E. N. Brothers, K. N. Kudin, 
 V. N. Staroverov, T. A. Keith, R. Kobayashi, J. Normand, 
 K. Raghavachari, A. P. Rendell, J. C. Burant, S. S. Iyengar, 
 J. Tomasi, M. Cossi, J. M. Millam, M. Klene, C. Adamo, R. Cammi, 
 J. W. Ochterski, R. L. Martin, K. Morokuma, O. Farkas, 
 J. B. Foresman, and D. J. Fox, Gaussian, Inc., Wallingford CT, 2016.
 
 ******************************************
 Gaussian 16:  ES64L-G16RevB.01 20-Dec-2017
                 8-Aug-2023 
 ******************************************
 %NProcShared=16
 Will use up to   16 processors via shared memory.
 %mem=12GB
 %Chk=checkpoint.chk
 -------------------------
 #p B3LYP/6-311+g(d) force
 -------------------------
 1/10=7,30=1,38=1/1,3;
 2/12=2,17=6,18=5,40=1/2;
 3/5=4,6=6,7=11,11=2,25=1,30=1,71=1,74=-5/1,2,3;
 4//1;
 5/5=2,38=5/2;
 6/7=2,8=2,9=2,10=2,28=1/1;
 7/29=1/1,2,3,16;
 1/10=7,30=1/3;
 99//99;
 Leave Link    1 at Tue Aug  8 11:07:23 2023, MaxMem=  1610612736 cpu:               0.2 elap:               0.0
 (Enter /home/sekinelabo/g16/l101.exe)
 ----
 Test
 ----
 Symbolic Z-matrix:
 Charge =  0 Multiplicity = 1
 Na                    0.        0.        0. 
 Na                   -3.21122   0.       -2.42688 
 Na                    0.        0.        5.10069 
 Na                    0.11955  -3.81861   8.54006 
 
 ITRead=  0  0  0  0
 MicOpt= -1 -1 -1 -1
 NAtoms=      4 NQM=        4 NQMF=       0 NMMI=      0 NMMIF=      0
                NMic=       0 NMicF=      0.
                    Isotopes and Nuclear Properties:
 (Nuclear quadrupole moments (NQMom) in fm**2, nuclear magnetic moments (NMagM)
  in nuclear magnetons)

  Atom         1           2           3           4
 IAtWgt=          23          23          23          23
 AtmWgt=  22.9897697  22.9897697  22.9897697  22.9897697
 NucSpn=           3           3           3           3
 AtZEff=  -0.0000000  -0.0000000  -0.0000000  -0.0000000
 NQMom=   10.4000000  10.4000000  10.4000000  10.4000000
 NMagM=    2.2175200   2.2175200   2.2175200   2.2175200
 AtZNuc=  11.0000000  11.0000000  11.0000000  11.0000000
 Leave Link  101 at Tue Aug  8 11:07:23 2023, MaxMem=  1610612736 cpu:               1.6 elap:               0.1
 (Enter /home/sekinelabo/g16/l103.exe)

 GradGradGradGradGradGradGradGradGradGradGradGradGradGradGradGradGradGrad
 Berny optimization.
 Initialization pass.
 Trust Radius=3.00D-01 FncErr=1.00D-07 GrdErr=1.00D-07 EigMax=2.50D+02 EigMin=1.00D-04
 Number of steps in this run=      2 maximum allowed number of steps=      2.
 GradGradGradGradGradGradGradGradGradGradGradGradGradGradGradGradGradGrad

 Leave Link  103 at Tue Aug  8 11:07:23 2023, MaxMem=  1610612736 cpu:               0.2 elap:               0.0
 (Enter /home/sekinelabo/g16/l202.exe)
                          Input orientation:                          
 ---------------------------------------------------------------------
 Center     Atomic      Atomic             Coordinates (Angstroms)
 Number     Number       Type             X           Y           Z
 ---------------------------------------------------------------------
      1         11           0        0.000000    0.000000    0.000000
      2         11           0       -3.211223    0.000000   -2.426879
      3         11           0        0.000000    0.000000    5.100689
      4         11           0        0.119548   -3.818614    8.540064
 ---------------------------------------------------------------------
                    Distance matrix (angstroms):
                    1          2          3          4
     1  Na   0.000000
     2  Na   4.025133   0.000000
     3  Na   5.100689   8.183900   0.000000
     4  Na   9.355683  12.080964   5.140565   0.000000
 Stoichiometry    Na4
 Framework group  C1[X(Na4)]
 Deg. of freedom     6
 Full point group                 C1      NOp   1
 Largest Abelian subgroup         C1      NOp   1
 Largest concise Abelian subgroup C1      NOp   1
                         Standard orientation:                         
 ---------------------------------------------------------------------
 Center     Atomic      Atomic             Coordinates (Angstroms)
 Number     Number       Type             X           Y           Z
 ---------------------------------------------------------------------
      1         11           0        2.709729    1.040950    0.970564
      2         11           0        5.692804   -1.276278   -0.419910
      3         11           0       -2.037516    1.373257   -0.865262
      4         11           0       -6.365017   -1.137929    0.314608
 ---------------------------------------------------------------------
 Rotational constants (GHZ):           2.7970920           0.2544847           0.2434181
 Leave Link  202 at Tue Aug  8 11:07:23 2023, MaxMem=  1610612736 cpu:               0.0 elap:               0.0
 (Enter /home/sekinelabo/g16/l301.exe)
 Standard basis: 6-311+G(d) (5D, 7F)
 Ernie: Thresh=  0.10000D-02 Tol=  0.10000D-05 Strict=F.
 There are   124 symmetry adapted cartesian basis functions of A   symmetry.
 There are   120 symmetry adapted basis functions of A   symmetry.
   120 basis functions,   200 primitive gaussians,   124 cartesian basis functions
    22 alpha electrons       22 beta electrons
       nuclear repulsion energy        60.8849462040 Hartrees.
 IExCor=  402 DFT=T Ex+Corr=B3LYP ExCW=0 ScaHFX=  0.200000
 ScaDFX=  0.800000  0.720000  1.000000  0.810000 ScalE2=  1.000000  1.000000
 IRadAn=      5 IRanWt=     -1 IRanGd=            0 ICorTp=0 IEmpDi=  4
 NAtoms=    4 NActive=    4 NUniq=    4 SFac= 1.00D+00 NAtFMM=   60 NAOKFM=F Big=F
 Integral buffers will be    131072 words long.
 Raffenetti 2 integral format.
 Two-electron integral symmetry is turned on.
 Leave Link  301 at Tue Aug  8 11:07:23 2023, MaxMem=  1610612736 cpu:               0.4 elap:               0.0
 (Enter /home/sekinelabo/g16/l302.exe)
 NPDir=0 NMtPBC=     1 NCelOv=     1 NCel=       1 NClECP=     1 NCelD=      1
         NCelK=      1 NCelE2=     1 NClLst=     1 CellRange=     0.0.
 One-electron integrals computed using PRISM.
 One-electron integral symmetry used in STVInt
 NBasis=   120 RedAO= T EigKep=  4.65D-04  NBF=   120
 NBsUse=   120 1.00D-06 EigRej= -1.00D+00 NBFU=   120
 Precomputing XC quadrature grid using
 IXCGrd= 4 IRadAn=           5 IRanWt=          -1 IRanGd=           0 AccXCQ= 0.00D+00.
 Generated NRdTot=       0 NPtTot=           0 NUsed=           0 NTot=          32
 NSgBfM=   110   110   110   110   110 MxSgAt=     4 MxSgA2=     4.
 Leave Link  302 at Tue Aug  8 11:07:23 2023, MaxMem=  1610612736 cpu:               1.3 elap:               0.1
 (Enter /home/sekinelabo/g16/l303.exe)
 DipDrv:  MaxL=1.
 Leave Link  303 at Tue Aug  8 11:07:23 2023, MaxMem=  1610612736 cpu:               0.3 elap:               0.0
 (Enter /home/sekinelabo/g16/l401.exe)
 ExpMin= 7.60D-03 ExpMax= 3.62D+04 ExpMxC= 1.21D+03 IAcc=3 IRadAn=         5 AccDes= 0.00D+00
 Harris functional with IExCor=  402 and IRadAn=       5 diagonalized for initial guess.
 HarFok:  IExCor=  402 AccDes= 0.00D+00 IRadAn=         5 IDoV= 1 UseB2=F ITyADJ=14
 ICtDFT=  3500011 ScaDFX=  1.000000  1.000000  1.000000  1.000000
 FoFCou: FMM=F IPFlag=           0 FMFlag=      100000 FMFlg1=           0
         NFxFlg=           0 DoJE=T BraDBF=F KetDBF=T FulRan=T
         wScrn=  0.000000 ICntrl=       500 IOpCl=  0 I1Cent=   200000004 NGrid=           0
         NMat0=    1 NMatS0=      1 NMatT0=    0 NMatD0=    1 NMtDS0=    0 NMtDT0=    0
 Petite list used in FoFCou.
 Harris En= -649.041274991189    
 JPrj=0 DoOrth=F DoCkMO=F.
 Leave Link  401 at Tue Aug  8 11:07:24 2023, MaxMem=  1610612736 cpu:               2.0 elap:               0.1
 (Enter /home/sekinelabo/g16/l502.exe)
 Keep R1 ints in memory in canonical form, NReq=41581754.
 FoFCou: FMM=F IPFlag=           0 FMFlag=           0 FMFlg1=           0
         NFxFlg=           0 DoJE=F BraDBF=F KetDBF=F FulRan=T
         wScrn=  0.000000 ICntrl=       600 IOpCl=  0 I1Cent=           0 NGrid=           0
         NMat0=    1 NMatS0=   7260 NMatT0=    0 NMatD0=    1 NMtDS0=    0 NMtDT0=    0
 Symmetry not used in FoFCou.
 Two-electron integral symmetry not used.
 Closed shell SCF:
 Using DIIS extrapolation, IDIIS=  1040.
 NGot=  1610612736 LenX=  1584221388 LenY=  1584205571
 Requested convergence on RMS density matrix=1.00D-08 within 128 cycles.
 Requested convergence on MAX density matrix=1.00D-06.
 Requested convergence on             energy=1.00D-06.
 No special actions if energy rises.

 Cycle   1  Pass 1  IDiag  1:
 E= -649.153352622619    
 DIIS: error= 1.48D-02 at cycle   1 NSaved=   1.
 NSaved= 1 IEnMin= 1 EnMin= -649.153352622619     IErMin= 1 ErrMin= 1.48D-02
 ErrMax= 1.48D-02  0.00D+00 EMaxC= 1.00D-01 BMatC= 2.70D-02 BMatP= 2.70D-02
 IDIUse=3 WtCom= 8.52D-01 WtEn= 1.48D-01
 Coeff-Com:  0.100D+01
 Coeff-En:   0.100D+01
 Coeff:      0.100D+01
 Gap=     0.031 Goal=   None    Shift=    0.000
 GapD=    0.031 DampG=0.250 DampE=0.500 DampFc=0.2500 IDamp=-1.
 Damping current iteration by 2.50D-01
 RMSDP=2.60D-03 MaxDP=1.01D-01              OVMax= 1.67D-01

 Cycle   2  Pass 1  IDiag  1:
 E= -649.157350978762     Delta-E=       -0.003998356143 Rises=F Damp=T
 DIIS: error= 1.03D-02 at cycle   2 NSaved=   2.
 NSaved= 2 IEnMin= 2 EnMin= -649.157350978762     IErMin= 2 ErrMin= 1.03D-02
 ErrMax= 1.03D-02  0.00D+00 EMaxC= 1.00D-01 BMatC= 1.03D-02 BMatP= 2.70D-02
 IDIUse=3 WtCom= 8.97D-01 WtEn= 1.03D-01
 Coeff-Com: -0.125D+01 0.225D+01
 Coeff-En:   0.000D+00 0.100D+01
 Coeff:     -0.112D+01 0.212D+01
 Gap=     0.033 Goal=   None    Shift=    0.000
 RMSDP=2.49D-03 MaxDP=1.48D-01 DE=-4.00D-03 OVMax= 3.74D-01

 Cycle   3  Pass 1  IDiag  1:
 E= -649.146997969914     Delta-E=        0.010353008848 Rises=F Damp=F
 DIIS: error= 5.42D-03 at cycle   3 NSaved=   3.
 NSaved= 3 IEnMin= 2 EnMin= -649.157350978762     IErMin= 3 ErrMin= 5.42D-03
 ErrMax= 5.42D-03  0.00D+00 EMaxC= 1.00D-01 BMatC= 2.14D-03 BMatP= 1.03D-02
 IDIUse=3 WtCom= 9.46D-01 WtEn= 5.42D-02
 Coeff-Com: -0.564D+00 0.101D+01 0.556D+00
 Coeff-En:   0.000D+00 0.792D+00 0.208D+00
 Coeff:     -0.534D+00 0.996D+00 0.537D+00
 Gap=     0.022 Goal=   None    Shift=    0.000
 RMSDP=4.88D-03 MaxDP=3.37D-01 DE= 1.04D-02 OVMax= 5.10D-01

 Cycle   4  Pass 1  IDiag  1:
 E= -649.129009022194     Delta-E=        0.017988947720 Rises=F Damp=F
 DIIS: error= 6.74D-03 at cycle   4 NSaved=   4.
 NSaved= 4 IEnMin= 2 EnMin= -649.157350978762     IErMin= 3 ErrMin= 5.42D-03
 ErrMax= 6.74D-03  0.00D+00 EMaxC= 1.00D-01 BMatC= 3.97D-03 BMatP= 2.14D-03
 IDIUse=3 WtCom= 1.09D-01 WtEn= 8.91D-01
 Coeff-Com: -0.881D-02 0.451D-01 0.563D+00 0.401D+00
 Coeff-En:   0.000D+00 0.000D+00 0.604D+00 0.396D+00
 Coeff:     -0.957D-03 0.490D-02 0.600D+00 0.396D+00
 Gap=     0.034 Goal=   None    Shift=    0.000
 RMSDP=2.63D-03 MaxDP=1.99D-01 DE= 1.80D-02 OVMax= 2.55D-01

 Cycle   5  Pass 1  IDiag  1:
 E= -649.165305480761     Delta-E=       -0.036296458567 Rises=F Damp=F
 DIIS: error= 8.82D-04 at cycle   5 NSaved=   5.
 NSaved= 5 IEnMin= 5 EnMin= -649.165305480761     IErMin= 5 ErrMin= 8.82D-04
 ErrMax= 8.82D-04  0.00D+00 EMaxC= 1.00D-01 BMatC= 1.06D-04 BMatP= 2.14D-03
 IDIUse=3 WtCom= 9.91D-01 WtEn= 8.82D-03
 Coeff-Com: -0.272D-01 0.359D-01 0.202D+00 0.401D-01 0.749D+00
 Coeff-En:   0.000D+00 0.000D+00 0.727D-01 0.000D+00 0.927D+00
 Coeff:     -0.270D-01 0.356D-01 0.201D+00 0.397D-01 0.751D+00
 Gap=     0.031 Goal=   None    Shift=    0.000
 RMSDP=6.03D-04 MaxDP=3.00D-02 DE=-3.63D-02 OVMax= 6.16D-02

 Cycle   6  Pass 1  IDiag  1:
 E= -649.165964267692     Delta-E=       -0.000658786932 Rises=F Damp=F
 DIIS: error= 4.41D-04 at cycle   6 NSaved=   6.
 NSaved= 6 IEnMin= 6 EnMin= -649.165964267692     IErMin= 6 ErrMin= 4.41D-04
 ErrMax= 4.41D-04  0.00D+00 EMaxC= 1.00D-01 BMatC= 2.30D-05 BMatP= 1.06D-04
 IDIUse=3 WtCom= 9.96D-01 WtEn= 4.41D-03
 Coeff-Com: -0.192D-01 0.244D-01 0.937D-01-0.243D-02 0.458D+00 0.446D+00
 Coeff-En:   0.000D+00 0.000D+00 0.000D+00 0.000D+00 0.117D+00 0.883D+00
 Coeff:     -0.191D-01 0.242D-01 0.932D-01-0.242D-02 0.456D+00 0.448D+00
 Gap=     0.031 Goal=   None    Shift=    0.000
 RMSDP=2.91D-04 MaxDP=1.82D-02 DE=-6.59D-04 OVMax= 2.37D-02

 Cycle   7  Pass 1  IDiag  1:
 E= -649.166103161819     Delta-E=       -0.000138894127 Rises=F Damp=F
 DIIS: error= 1.58D-04 at cycle   7 NSaved=   7.
 NSaved= 7 IEnMin= 7 EnMin= -649.166103161819     IErMin= 7 ErrMin= 1.58D-04
 ErrMax= 1.58D-04  0.00D+00 EMaxC= 1.00D-01 BMatC= 4.10D-06 BMatP= 2.30D-05
 IDIUse=3 WtCom= 9.98D-01 WtEn= 1.58D-03
 Coeff-Com: -0.454D-02 0.575D-02 0.272D-01-0.122D-01 0.110D+00 0.263D+00
 Coeff-Com:  0.611D+00
 Coeff-En:   0.000D+00 0.000D+00 0.000D+00 0.000D+00 0.000D+00 0.125D+00
 Coeff-En:   0.875D+00
 Coeff:     -0.453D-02 0.574D-02 0.272D-01-0.122D-01 0.110D+00 0.263D+00
 Coeff:      0.611D+00
 Gap=     0.031 Goal=   None    Shift=    0.000
 RMSDP=6.34D-05 MaxDP=3.40D-03 DE=-1.39D-04 OVMax= 4.86D-03

 Cycle   8  Pass 1  IDiag  1:
 E= -649.166120465735     Delta-E=       -0.000017303916 Rises=F Damp=F
 DIIS: error= 1.06D-04 at cycle   8 NSaved=   8.
 NSaved= 8 IEnMin= 8 EnMin= -649.166120465735     IErMin= 8 ErrMin= 1.06D-04
 ErrMax= 1.06D-04  0.00D+00 EMaxC= 1.00D-01 BMatC= 1.08D-06 BMatP= 4.10D-06
 IDIUse=3 WtCom= 9.99D-01 WtEn= 1.06D-03
 Coeff-Com: -0.322D-03 0.342D-03 0.175D-01-0.869D-02 0.365D-01 0.116D+00
 Coeff-Com:  0.251D+00 0.587D+00
 Coeff-En:   0.000D+00 0.000D+00 0.000D+00 0.000D+00 0.000D+00 0.000D+00
 Coeff-En:   0.000D+00 0.100D+01
 Coeff:     -0.321D-03 0.342D-03 0.175D-01-0.868D-02 0.364D-01 0.116D+00
 Coeff:      0.251D+00 0.588D+00
 Gap=     0.031 Goal=   None    Shift=    0.000
 RMSDP=2.62D-05 MaxDP=1.75D-03 DE=-1.73D-05 OVMax= 3.03D-03

 Cycle   9  Pass 1  IDiag  1:
 E= -649.166128063092     Delta-E=       -0.000007597357 Rises=F Damp=F
 DIIS: error= 5.44D-05 at cycle   9 NSaved=   9.
 NSaved= 9 IEnMin= 9 EnMin= -649.166128063092     IErMin= 9 ErrMin= 5.44D-05
 ErrMax= 5.44D-05  0.00D+00 EMaxC= 1.00D-01 BMatC= 2.52D-07 BMatP= 1.08D-06
 IDIUse=1 WtCom= 1.00D+00 WtEn= 0.00D+00
 Coeff-Com:  0.121D-02-0.161D-02 0.544D-02-0.278D-02-0.466D-02-0.647D-02
 Coeff-Com: -0.308D-01-0.171D-01 0.106D+01
 Coeff:      0.121D-02-0.161D-02 0.544D-02-0.278D-02-0.466D-02-0.647D-02
 Coeff:     -0.308D-01-0.171D-01 0.106D+01
 Gap=     0.031 Goal=   None    Shift=    0.000
 RMSDP=1.45D-05 MaxDP=9.88D-04 DE=-7.60D-06 OVMax= 1.56D-03

 Cycle  10  Pass 1  IDiag  1:
 E= -649.166129847624     Delta-E=       -0.000001784532 Rises=F Damp=F
 DIIS: error= 1.70D-05 at cycle  10 NSaved=  10.
 NSaved=10 IEnMin=10 EnMin= -649.166129847624     IErMin=10 ErrMin= 1.70D-05
 ErrMax= 1.70D-05  0.00D+00 EMaxC= 1.00D-01 BMatC= 2.56D-08 BMatP= 2.52D-07
 IDIUse=1 WtCom= 1.00D+00 WtEn= 0.00D+00
 Coeff-Com:  0.473D-03-0.636D-03 0.177D-02-0.839D-03-0.307D-02-0.845D-02
 Coeff-Com: -0.261D-01-0.631D-01 0.269D+00 0.831D+00
 Coeff:      0.473D-03-0.636D-03 0.177D-02-0.839D-03-0.307D-02-0.845D-02
 Coeff:     -0.261D-01-0.631D-01 0.269D+00 0.831D+00
 Gap=     0.031 Goal=   None    Shift=    0.000
 RMSDP=4.62D-06 MaxDP=2.89D-04 DE=-1.78D-06 OVMax= 4.49D-04

 Cycle  11  Pass 1  IDiag  1:
 E= -649.166130023913     Delta-E=       -0.000000176289 Rises=F Damp=F
 DIIS: error= 5.89D-06 at cycle  11 NSaved=  11.
 NSaved=11 IEnMin=11 EnMin= -649.166130023913     IErMin=11 ErrMin= 5.89D-06
 ErrMax= 5.89D-06  0.00D+00 EMaxC= 1.00D-01 BMatC= 2.86D-09 BMatP= 2.56D-08
 IDIUse=1 WtCom= 1.00D+00 WtEn= 0.00D+00
 Coeff-Com:  0.171D-04-0.235D-04 0.350D-03-0.167D-03-0.145D-03 0.484D-03
 Coeff-Com:  0.259D-02-0.240D-01-0.274D-01 0.558D-01 0.993D+00
 Coeff:      0.171D-04-0.235D-04 0.350D-03-0.167D-03-0.145D-03 0.484D-03
 Coeff:      0.259D-02-0.240D-01-0.274D-01 0.558D-01 0.993D+00
 Gap=     0.031 Goal=   None    Shift=    0.000
 RMSDP=1.91D-06 MaxDP=1.20D-04 DE=-1.76D-07 OVMax= 1.99D-04

 Cycle  12  Pass 1  IDiag  1:
 E= -649.166130046848     Delta-E=       -0.000000022935 Rises=F Damp=F
 DIIS: error= 1.17D-06 at cycle  12 NSaved=  12.
 NSaved=12 IEnMin=12 EnMin= -649.166130046848     IErMin=12 ErrMin= 1.17D-06
 ErrMax= 1.17D-06  0.00D+00 EMaxC= 1.00D-01 BMatC= 1.22D-10 BMatP= 2.86D-09
 IDIUse=1 WtCom= 1.00D+00 WtEn= 0.00D+00
 Coeff-Com:  0.422D-05-0.594D-05 0.272D-04-0.967D-05 0.429D-05 0.581D-03
 Coeff-Com:  0.168D-02-0.453D-02-0.683D-02-0.478D-01 0.784D-01 0.978D+00
 Coeff:      0.422D-05-0.594D-05 0.272D-04-0.967D-05 0.429D-05 0.581D-03
 Coeff:      0.168D-02-0.453D-02-0.683D-02-0.478D-01 0.784D-01 0.978D+00
 Gap=     0.031 Goal=   None    Shift=    0.000
 RMSDP=4.70D-07 MaxDP=2.99D-05 DE=-2.29D-08 OVMax= 5.05D-05

 Cycle  13  Pass 1  IDiag  1:
 E= -649.166130047879     Delta-E=       -0.000000001031 Rises=F Damp=F
 DIIS: error= 8.54D-08 at cycle  13 NSaved=  13.
 NSaved=13 IEnMin=13 EnMin= -649.166130047879     IErMin=13 ErrMin= 8.54D-08
 ErrMax= 8.54D-08  0.00D+00 EMaxC= 1.00D-01 BMatC= 6.76D-13 BMatP= 1.22D-10
 IDIUse=1 WtCom= 1.00D+00 WtEn= 0.00D+00
 Coeff-Com:  0.148D-06-0.204D-06-0.703D-06 0.530D-06 0.688D-05 0.344D-04
 Coeff-Com:  0.191D-04 0.133D-03-0.416D-03-0.121D-02-0.224D-01 0.465D-01
 Coeff-Com:  0.977D+00
 Coeff:      0.148D-06-0.204D-06-0.703D-06 0.530D-06 0.688D-05 0.344D-04
 Coeff:      0.191D-04 0.133D-03-0.416D-03-0.121D-02-0.224D-01 0.465D-01
 Coeff:      0.977D+00
 Gap=     0.031 Goal=   None    Shift=    0.000
 RMSDP=4.42D-08 MaxDP=2.62D-06 DE=-1.03D-09 OVMax= 4.39D-06

 Cycle  14  Pass 1  IDiag  1:
 E= -649.166130047888     Delta-E=       -0.000000000009 Rises=F Damp=F
 DIIS: error= 8.49D-09 at cycle  14 NSaved=  14.
 NSaved=14 IEnMin=14 EnMin= -649.166130047888     IErMin=14 ErrMin= 8.49D-09
 ErrMax= 8.49D-09  0.00D+00 EMaxC= 1.00D-01 BMatC= 9.73D-15 BMatP= 6.76D-13
 IDIUse=1 WtCom= 1.00D+00 WtEn= 0.00D+00
 Coeff-Com: -0.361D-08 0.117D-07 0.289D-06-0.179D-06 0.437D-05-0.804D-05
 Coeff-Com: -0.386D-04 0.177D-03 0.284D-03 0.120D-02-0.113D-01-0.122D-01
 Coeff-Com:  0.366D+00 0.656D+00
 Coeff:     -0.361D-08 0.117D-07 0.289D-06-0.179D-06 0.437D-05-0.804D-05
 Coeff:     -0.386D-04 0.177D-03 0.284D-03 0.120D-02-0.113D-01-0.122D-01
 Coeff:      0.366D+00 0.656D+00
 Gap=     0.031 Goal=   None    Shift=    0.000
 RMSDP=6.44D-09 MaxDP=3.09D-07 DE=-9.09D-12 OVMax= 4.72D-07

 SCF Done:  E(RB3LYP) =  -649.166130048     A.U. after   14 cycles
            NFock= 14  Conv=0.64D-08     -V/T= 2.0031
 KE= 6.471917999277D+02 PE=-1.680468299192D+03 EE= 3.232254230126D+02
 Leave Link  502 at Tue Aug  8 11:07:25 2023, MaxMem=  1610612736 cpu:              18.9 elap:               1.4
 (Enter /home/sekinelabo/g16/l601.exe)
 Copying SCF densities to generalized density rwf, IOpCl= 0 IROHF=0.

 **********************************************************************

            Population analysis using the SCF Density.

 **********************************************************************

 Orbital symmetries:
       Occupied  (A) (A) (A) (A) (A) (A) (A) (A) (A) (A) (A) (A)
                 (A) (A) (A) (A) (A) (A) (A) (A) (A) (A)
       Virtual   (A) (A) (A) (A) (A) (A) (A) (A) (A) (A) (A) (A)
                 (A) (A) (A) (A) (A) (A) (A) (A) (A) (A) (A) (A)
                 (A) (A) (A) (A) (A) (A) (A) (A) (A) (A) (A) (A)
                 (A) (A) (A) (A) (A) (A) (A) (A) (A) (A) (A) (A)
                 (A) (A) (A) (A) (A) (A) (A) (A) (A) (A) (A) (A)
                 (A) (A) (A) (A) (A) (A) (A) (A) (A) (A) (A) (A)
                 (A) (A) (A) (A) (A) (A) (A) (A) (A) (A) (A) (A)
                 (A) (A) (A) (A) (A) (A) (A) (A) (A) (A) (A) (A)
                 (A) (A)
 The electronic state is 1-A.
 Alpha  occ. eigenvalues --  -38.46330 -38.46230 -38.45592 -38.45418  -2.22000
 Alpha  occ. eigenvalues --   -2.21898  -2.21286  -2.21109  -1.15678  -1.15678
 Alpha  occ. eigenvalues --   -1.15638  -1.15580  -1.15575  -1.15531  -1.14965
 Alpha  occ. eigenvalues --   -1.14965  -1.14906  -1.14795  -1.14788  -1.14726
 Alpha  occ. eigenvalues --   -0.12764  -0.11598
 Alpha virt. eigenvalues --   -0.08466  -0.06552  -0.02615  -0.02551  -0.02373
 Alpha virt. eigenvalues --   -0.01797  -0.01709  -0.01231  -0.00567  -0.00343
 Alpha virt. eigenvalues --   -0.00094   0.00530   0.00613   0.00641   0.00754
 Alpha virt. eigenvalues --    0.01322   0.01391   0.01543   0.01703   0.01825
 Alpha virt. eigenvalues --    0.01932   0.02051   0.02094   0.02286   0.02419
 Alpha virt. eigenvalues --    0.02716   0.02871   0.03206   0.03445   0.04055
 Alpha virt. eigenvalues --    0.07069   0.07395   0.07809   0.07879   0.07925
 Alpha virt. eigenvalues --    0.08082   0.08372   0.08501   0.08649   0.09004
 Alpha virt. eigenvalues --    0.09213   0.09406   0.09975   0.11352   0.11619
 Alpha virt. eigenvalues --    0.12916   0.31341   0.31596   0.31822   0.32625
 Alpha virt. eigenvalues --    0.33905   0.34080   0.34231   0.34308   0.34322
 Alpha virt. eigenvalues --    0.34538   0.34710   0.34900   0.35013   0.35080
 Alpha virt. eigenvalues --    0.35622   0.36052   0.36903   0.38850   0.38933
 Alpha virt. eigenvalues --    0.41106   0.42283   0.42366   0.43206   0.43366
 Alpha virt. eigenvalues --    0.43548   0.43691   0.44410   0.44992   0.45399
 Alpha virt. eigenvalues --    0.46959   0.48971   0.50298   1.99229   2.01169
 Alpha virt. eigenvalues --    2.02073   2.06706   4.42098   4.42274   4.42873
 Alpha virt. eigenvalues --    4.43095   4.43358   4.43429   4.43497   4.43599
 Alpha virt. eigenvalues --    4.44034   4.44468   4.44827   4.47119  96.17962
 Alpha virt. eigenvalues --   96.20268  96.21333  96.26673
          Condensed to atoms (all electrons):
               1          2          3          4
     1  Na  10.816407   0.249370   0.016842  -0.025758
     2  Na   0.249370  10.754753  -0.053348  -0.008747
     3  Na   0.016842  -0.053348  10.885113   0.162996
     4  Na  -0.025758  -0.008747   0.162996  10.861018
 Mulliken charges:
               1
     1  Na  -0.056861
     2  Na   0.057972
     3  Na  -0.011603
     4  Na   0.010491
 Sum of Mulliken charges =  -0.00000
 Mulliken charges with hydrogens summed into heavy atoms:
               1
     1  Na  -0.056861
     2  Na   0.057972
     3  Na  -0.011603
     4  Na   0.010491
 Electronic spatial extent (au):  <R**2>=           3706.4344
 Charge=              0.0000 electrons
 Dipole moment (field-independent basis, Debye):
    X=              0.2636    Y=             -0.3749    Z=             -0.0654  Tot=              0.4630
 Quadrupole moment (field-independent basis, Debye-Ang):
   XX=            -26.5494   YY=            -39.6382   ZZ=            -43.7361
   XY=             -0.5722   XZ=             -4.6800   YZ=              1.0236
 Traceless Quadrupole moment (field-independent basis, Debye-Ang):
   XX=             10.0918   YY=             -2.9970   ZZ=             -7.0949
   XY=             -0.5722   XZ=             -4.6800   YZ=              1.0236
 Octapole moment (field-independent basis, Debye-Ang**2):
  XXX=             -6.7897  YYY=             -2.8779  ZZZ=              0.9803  XYY=             11.5866
  XXY=            -93.8638  XXZ=             -6.7767  XZZ=              7.5183  YZZ=              2.4679
  YYZ=             -0.8704  XYZ=             16.5271
 Hexadecapole moment (field-independent basis, Debye-Ang**3):
 XXXX=          -4094.6665 YYYY=           -539.2110 ZZZZ=           -316.8787 XXXY=            -24.8302
 XXXZ=           -305.9614 YYYX=            -15.0115 YYYZ=              6.3465 ZZZX=            -19.0231
 ZZZY=              6.9171 XXYY=           -914.4544 XXZZ=          -1018.5443 YYZZ=           -140.0102
 XXYZ=             26.3505 YYXZ=            -10.5365 ZZXY=             -0.6515
 N-N= 6.088494620404D+01 E-N=-1.680468299255D+03  KE= 6.471917999277D+02
 No NMR shielding tensors so no spin-rotation constants.
 Leave Link  601 at Tue Aug  8 11:07:25 2023, MaxMem=  1610612736 cpu:               0.9 elap:               0.1
 (Enter /home/sekinelabo/g16/l701.exe)
 ... and contract with generalized density number  0.
 Compute integral first derivatives.
 Leave Link  701 at Tue Aug  8 11:07:25 2023, MaxMem=  1610612736 cpu:               1.2 elap:               0.1
 (Enter /home/sekinelabo/g16/l702.exe)
 L702 exits ... SP integral derivatives will be done elsewhere.
 Leave Link  702 at Tue Aug  8 11:07:25 2023, MaxMem=  1610612736 cpu:               0.5 elap:               0.0
 (Enter /home/sekinelabo/g16/l703.exe)
 Integral derivatives from FoFJK, PRISM(SPDF).
 Compute integral first derivatives, UseDBF=F ICtDFT=           0.
 Calling FoFJK, ICntrl=      2127 FMM=F ISym2X=0 I1Cent= 0 IOpClX= 0 NMat=1 NMatS=1 NMatT=0.
 FoFJK:  IHMeth= 1 ICntrl=    2127 DoSepK=F KAlg= 0 I1Cent=           0 FoldK=F
 IRaf=         0 NMat=       1 IRICut=       1 DoRegI=T DoRafI=F ISym2E= 0 IDoP0=0 IntGTp=1.
 FoFCou: FMM=F IPFlag=           0 FMFlag=      100000 FMFlg1=         800
         NFxFlg=           0 DoJE=F BraDBF=F KetDBF=F FulRan=T
         wScrn=  0.000000 ICntrl=      2127 IOpCl=  0 I1Cent=           0 NGrid=           0
         NMat0=    1 NMatS0=      1 NMatT0=    0 NMatD0=    1 NMtDS0=    0 NMtDT0=    0
 Symmetry not used in FoFCou.
 Leave Link  703 at Tue Aug  8 11:07:25 2023, MaxMem=  1610612736 cpu:               5.2 elap:               0.3
 (Enter /home/sekinelabo/g16/l716.exe)
 Dipole        = 1.03727362D-01-1.47494984D-01-2.57366472D-02
 ***** Axes restored to original set *****
 -------------------------------------------------------------------
 Center     Atomic                   Forces (Hartrees/Bohr)
 Number     Number              X              Y              Z
 -------------------------------------------------------------------
      1       11          -0.006184557   -0.000037496   -0.002957087
      2       11           0.006199589    0.000031088    0.004681577
      3       11           0.000102017   -0.004565621    0.002382059
      4       11          -0.000117048    0.004572028   -0.004106548
 -------------------------------------------------------------------
 Cartesian Forces:  Max     0.006199589 RMS     0.003782172
 Z-matrix is all fixed cartesians, so copy forces.
 Force constants in Cartesian coordinates: 
                1             2             3             4             5 
      1  0.649646D-02
      2  0.000000D+00  0.000000D+00
      3  0.490970D-02  0.000000D+00  0.371050D-02
      4 -0.649646D-02  0.000000D+00 -0.490970D-02  0.649646D-02
      5  0.000000D+00  0.000000D+00  0.000000D+00  0.000000D+00  0.000000D+00
      6 -0.490970D-02  0.000000D+00 -0.371050D-02  0.490970D-02  0.000000D+00
      7  0.000000D+00  0.000000D+00  0.000000D+00  0.000000D+00  0.000000D+00
      8  0.000000D+00  0.000000D+00  0.000000D+00  0.000000D+00  0.000000D+00
      9  0.000000D+00  0.000000D+00  0.000000D+00  0.000000D+00  0.000000D+00
     10  0.000000D+00  0.000000D+00  0.000000D+00  0.000000D+00  0.000000D+00
     11  0.000000D+00  0.000000D+00  0.000000D+00  0.000000D+00  0.000000D+00
     12  0.000000D+00  0.000000D+00  0.000000D+00  0.000000D+00  0.000000D+00
                6             7             8             9            10 
      6  0.371050D-02
      7  0.000000D+00  0.100000D+01
      8  0.000000D+00  0.000000D+00  0.100000D+01
      9  0.000000D+00  0.000000D+00  0.000000D+00  0.100000D+01
     10  0.000000D+00  0.000000D+00  0.000000D+00  0.000000D+00  0.100000D+01
     11  0.000000D+00  0.000000D+00  0.000000D+00  0.000000D+00  0.000000D+00
     12  0.000000D+00  0.000000D+00  0.000000D+00  0.000000D+00  0.000000D+00
               11            12 
     11  0.100000D+01
     12  0.000000D+00  0.100000D+01
 Leave Link  716 at Tue Aug  8 11:07:25 2023, MaxMem=  1610612736 cpu:               0.3 elap:               0.0
 (Enter /home/sekinelabo/g16/l103.exe)

 GradGradGradGradGradGradGradGradGradGradGradGradGradGradGradGradGradGrad
 Berny optimization.
 Search for a local minimum.
 Step number   1 out of a maximum of    2
 All quantities printed in internal units (Hartrees-Bohrs-Radians)
 Second derivative matrix not updated -- first step.
 The second derivative matrix:
                          X1        Y1        Z1        X2        Y2
           X1           0.00650
           Y1           0.00000  -0.00000
           Z1           0.00491   0.00000   0.00371
           X2          -0.00650  -0.00000  -0.00491   0.00650
           Y2          -0.00000   0.00000  -0.00000   0.00000  -0.00000
           Z2          -0.00491  -0.00000  -0.00371   0.00491   0.00000
           X3           0.00000   0.00000   0.00000   0.00000   0.00000
           Y3           0.00000   0.00000   0.00000   0.00000   0.00000
           Z3           0.00000   0.00000   0.00000   0.00000   0.00000
           X4           0.00000   0.00000   0.00000   0.00000   0.00000
           Y4           0.00000   0.00000   0.00000   0.00000   0.00000
           Z4           0.00000   0.00000   0.00000   0.00000   0.00000
                          Z2        X3        Y3        Z3        X4
           Z2           0.00371
           X3           0.00000   1.00000
           Y3           0.00000   0.00000   1.00000
           Z3           0.00000   0.00000   0.00000   1.00000
           X4           0.00000   0.00000   0.00000   0.00000   1.00000
           Y4           0.00000   0.00000   0.00000   0.00000   0.00000
           Z4           0.00000   0.00000   0.00000   0.00000   0.00000
                          Y4        Z4
           Y4           1.00000
           Z4           0.00000   1.00000
 ITU=  0
     Eigenvalues ---    0.02041   0.04837   0.45870   0.50000   0.92369
     Eigenvalues ---    1.00000
 Quadratic step=5.022D-01 exceeds max=3.000D-01 adjusted using Lamda=-1.378D-02.
 Angle between NR and scaled steps=   0.93 degrees.
 Angle between quadratic step and forces=  36.73 degrees.
 Linear search not attempted -- first point.
 B after Tr=    -0.000000   -0.000000    0.000000
         Rot=    1.000000    0.000000   -0.000000    0.000000 Ang=   0.00 deg.
 Variable       Old X    -DE/DX   Delta X   Delta X   Delta X     New X
                                 (Linear)    (Quad)   (Total)
    X1       -0.00000  -0.00618   0.00000  -0.17678  -0.17678  -0.17678
    Y1        0.00000  -0.00004   0.00000  -0.00416  -0.00416  -0.00416
    Z1        0.00000  -0.00296   0.00000  -0.11803  -0.11803  -0.11803
    X2       -6.06833   0.00620   0.00000   0.17285   0.17285  -5.89548
    Y2       -0.00000   0.00003   0.00000   0.00277   0.00277   0.00277
    Z2       -4.58614   0.00468   0.00000   0.12188   0.12188  -4.46425
    X3        0.00000   0.00010   0.00000   0.00178   0.00178   0.00178
    Y3        0.00000  -0.00457   0.00000  -0.00399  -0.00399  -0.00399
    Z3        9.63890   0.00238   0.00000   0.00109   0.00109   9.64000
    X4        0.22591  -0.00012   0.00000   0.00216   0.00216   0.22807
    Y4       -7.21613   0.00457   0.00000   0.00538   0.00538  -7.21076
    Z4       16.13838  -0.00411   0.00000  -0.00494  -0.00494  16.13344
         Item               Value     Threshold  Converged?
 Maximum Force            0.006200     0.000450     NO 
 RMS     Force            0.003782     0.000300     NO 
 Maximum Displacement     0.176783     0.001800     NO 
 RMS     Displacement     0.086612     0.001200     NO 
 Predicted change in Energy=-2.195593D-03
 GradGradGradGradGradGradGradGradGradGradGradGradGradGradGradGradGradGrad

 Leave Link  103 at Tue Aug  8 11:07:25 2023, MaxMem=  1610612736 cpu:               0.1 elap:               0.0
 (Enter /home/sekinelabo/g16/l9999.exe)
 1\1\GINC-SEKINELABO-XA7R-R37\Force\RB3LYP\6-311+G(d)\Na4\SEKINELABO\08
 -Aug-2023\0\\#p B3LYP/6-311+g(d) force\\Test\\0,1\Na,0.,0.,0.\Na,-3.21
 12230223,0.,-2.426878631\Na,0.,0.,5.1006887263\Na,0.1195484243,-3.8186
 14183,8.5400644485\\Version=ES64L-G16RevB.01\State=1-A\HF=-649.16613\R
 MSD=6.435e-09\RMSF=3.782e-03\Dipole=-0.1407133,-0.0631618,-0.0968859\Q
 uadrupole=-1.2901396,-2.2011526,3.4912922,-0.4340416,4.9399029,-4.8444
 55\PG=C01 [X(Na4)]\\@


 GETTING A SIMPLE ANSWER FROM A PROFESSOR IS LIKE
 GETTING A THIMBLE OF WATER FROM A FIRE HYDRANT.
     -- PROF. LEN SHAPIRO, NDSU
 Job cpu time:       0 days  0 hours  0 minutes 33.5 seconds.
 Elapsed time:       0 days  0 hours  0 minutes  2.3 seconds.
 File lengths (MBytes):  RWF=     10 Int=      0 D2E=      0 Chk=      2 Scr=      1
 Normal termination of Gaussian 16 at Tue Aug  8 11:07:26 2023.
