 Initial command:
 /home/sekinelabo/g16/l1.exe "/home/sekinelabo/g16temp/Gau-19052.inp" -scrdir="/home/sekinelabo/g16temp/"
 Entering Link 1 = /home/sekinelabo/g16/l1.exe PID=     19314.
  
 Copyright (c) 1988-2017, Gaussian, Inc.  All Rights Reserved.
  
 This is part of the Gaussian(R) 16 program.  It is based on
 the Gaussian(R) 09 system (copyright 2009, Gaussian, Inc.),
 the Gaussian(R) 03 system (copyright 2003, Gaussian, Inc.),
 the Gaussian(R) 98 system (copyright 1998, Gaussian, Inc.),
 the Gaussian(R) 94 system (copyright 1995, Gaussian, Inc.),
 the Gaussian 92(TM) system (copyright 1992, Gaussian, Inc.),
 the Gaussian 90(TM) system (copyright 1990, Gaussian, Inc.),
 the Gaussian 88(TM) system (copyright 1988, Gaussian, Inc.),
 the Gaussian 86(TM) system (copyright 1986, Carnegie Mellon
 University), and the Gaussian 82(TM) system (copyright 1983,
 Carnegie Mellon University). Gaussian is a federally registered
 trademark of Gaussian, Inc.
  
 This software contains proprietary and confidential information,
 including trade secrets, belonging to Gaussian, Inc.
  
 This software is provided under written license and may be
 used, copied, transmitted, or stored only in accord with that
 written license.
  
 The following legend is applicable only to US Government
 contracts under FAR:
  
                    RESTRICTED RIGHTS LEGEND
  
 Use, reproduction and disclosure by the US Government is
 subject to restrictions as set forth in subparagraphs (a)
 and (c) of the Commercial Computer Software - Restricted
 Rights clause in FAR 52.227-19.
  
 Gaussian, Inc.
 340 Quinnipiac St., Bldg. 40, Wallingford CT 06492
  
  
 ---------------------------------------------------------------
 Warning -- This program may not be used in any manner that
 competes with the business of Gaussian, Inc. or will provide
 assistance to any competitor of Gaussian, Inc.  The licensee
 of this program is prohibited from giving any competitor of
 Gaussian, Inc. access to this program.  By using this program,
 the user acknowledges that Gaussian, Inc. is engaged in the
 business of creating and licensing software in the field of
 computational chemistry and represents and warrants to the
 licensee that it is not a competitor of Gaussian, Inc. and that
 it will not use this program in any manner prohibited above.
 ---------------------------------------------------------------
  

 Cite this work as:
 Gaussian 16, Revision B.01,
 M. J. Frisch, G. W. Trucks, H. B. Schlegel, G. E. Scuseria, 
 M. A. Robb, J. R. Cheeseman, G. Scalmani, V. Barone, 
 G. A. Petersson, H. Nakatsuji, X. Li, M. Caricato, A. V. Marenich, 
 J. Bloino, B. G. Janesko, R. Gomperts, B. Mennucci, H. P. Hratchian, 
 J. V. Ortiz, A. F. Izmaylov, J. L. Sonnenberg, D. Williams-Young, 
 F. Ding, F. Lipparini, F. Egidi, J. Goings, B. Peng, A. Petrone, 
 T. Henderson, D. Ranasinghe, V. G. Zakrzewski, J. Gao, N. Rega, 
 G. Zheng, W. Liang, M. Hada, M. Ehara, K. Toyota, R. Fukuda, 
 J. Hasegawa, M. Ishida, T. Nakajima, Y. Honda, O. Kitao, H. Nakai, 
 T. Vreven, K. Throssell, J. A. Montgomery, Jr., J. E. Peralta, 
 F. Ogliaro, M. J. Bearpark, J. J. Heyd, E. N. Brothers, K. N. Kudin, 
 V. N. Staroverov, T. A. Keith, R. Kobayashi, J. Normand, 
 K. Raghavachari, A. P. Rendell, J. C. Burant, S. S. Iyengar, 
 J. Tomasi, M. Cossi, J. M. Millam, M. Klene, C. Adamo, R. Cammi, 
 J. W. Ochterski, R. L. Martin, K. Morokuma, O. Farkas, 
 J. B. Foresman, and D. J. Fox, Gaussian, Inc., Wallingford CT, 2016.
 
 ******************************************
 Gaussian 16:  ES64L-G16RevB.01 20-Dec-2017
                 8-Aug-2023 
 ******************************************
 %NProcShared=16
 Will use up to   16 processors via shared memory.
 %mem=12GB
 %Chk=checkpoint.chk
 -------------------------
 #p B3LYP/6-311+g(d) force
 -------------------------
 1/10=7,30=1,38=1/1,3;
 2/12=2,17=6,18=5,40=1/2;
 3/5=4,6=6,7=11,11=2,25=1,30=1,71=1,74=-5/1,2,3;
 4//1;
 5/5=2,38=5/2;
 6/7=2,8=2,9=2,10=2,28=1/1;
 7/29=1/1,2,3,16;
 1/10=7,30=1/3;
 99//99;
 Leave Link    1 at Tue Aug  8 11:07:07 2023, MaxMem=  1610612736 cpu:               0.2 elap:               0.0
 (Enter /home/sekinelabo/g16/l101.exe)
 ----
 Test
 ----
 Symbolic Z-matrix:
 Charge =  0 Multiplicity = 1
 Na                    0.        0.        0. 
 Na                   -4.98861   0.        2.64363 
 Na                    0.        0.        5.78616 
 Na                    0.0395   -0.2106    10.58031 
 
 ITRead=  0  0  0  0
 MicOpt= -1 -1 -1 -1
 NAtoms=      4 NQM=        4 NQMF=       0 NMMI=      0 NMMIF=      0
                NMic=       0 NMicF=      0.
                    Isotopes and Nuclear Properties:
 (Nuclear quadrupole moments (NQMom) in fm**2, nuclear magnetic moments (NMagM)
  in nuclear magnetons)

  Atom         1           2           3           4
 IAtWgt=          23          23          23          23
 AtmWgt=  22.9897697  22.9897697  22.9897697  22.9897697
 NucSpn=           3           3           3           3
 AtZEff=  -0.0000000  -0.0000000  -0.0000000  -0.0000000
 NQMom=   10.4000000  10.4000000  10.4000000  10.4000000
 NMagM=    2.2175200   2.2175200   2.2175200   2.2175200
 AtZNuc=  11.0000000  11.0000000  11.0000000  11.0000000
 Leave Link  101 at Tue Aug  8 11:07:07 2023, MaxMem=  1610612736 cpu:               1.5 elap:               0.1
 (Enter /home/sekinelabo/g16/l103.exe)

 GradGradGradGradGradGradGradGradGradGradGradGradGradGradGradGradGradGrad
 Berny optimization.
 Initialization pass.
 Trust Radius=3.00D-01 FncErr=1.00D-07 GrdErr=1.00D-07 EigMax=2.50D+02 EigMin=1.00D-04
 Number of steps in this run=      2 maximum allowed number of steps=      2.
 GradGradGradGradGradGradGradGradGradGradGradGradGradGradGradGradGradGrad

 Leave Link  103 at Tue Aug  8 11:07:07 2023, MaxMem=  1610612736 cpu:               0.1 elap:               0.0
 (Enter /home/sekinelabo/g16/l202.exe)
                          Input orientation:                          
 ---------------------------------------------------------------------
 Center     Atomic      Atomic             Coordinates (Angstroms)
 Number     Number       Type             X           Y           Z
 ---------------------------------------------------------------------
      1         11           0        0.000000    0.000000    0.000000
      2         11           0       -4.988607    0.000000    2.643628
      3         11           0        0.000000    0.000000    5.786156
      4         11           0        0.039499   -0.210600   10.580311
 ---------------------------------------------------------------------
                    Distance matrix (angstroms):
                    1          2          3          4
     1  Na   0.000000
     2  Na   5.645793   0.000000
     3  Na   5.786156   5.895904   0.000000
     4  Na  10.582481   9.397720   4.798941   0.000000
 Stoichiometry    Na4
 Framework group  C1[X(Na4)]
 Deg. of freedom     6
 Full point group                 C1      NOp   1
 Largest Abelian subgroup         C1      NOp   1
 Largest concise Abelian subgroup C1      NOp   1
                         Standard orientation:                         
 ---------------------------------------------------------------------
 Center     Atomic      Atomic             Coordinates (Angstroms)
 Number     Number       Type             X           Y           Z
 ---------------------------------------------------------------------
      1         11           0        4.344506   -2.290019   -0.034474
      2         11           0        2.910435    3.170498   -0.000337
      3         11           0       -1.287639   -0.968577    0.076603
      4         11           0       -5.967303    0.088098   -0.041792
 ---------------------------------------------------------------------
 Rotational constants (GHZ):           1.3527072           0.3401807           0.2718816
 Leave Link  202 at Tue Aug  8 11:07:07 2023, MaxMem=  1610612736 cpu:               0.0 elap:               0.0
 (Enter /home/sekinelabo/g16/l301.exe)
 Standard basis: 6-311+G(d) (5D, 7F)
 Ernie: Thresh=  0.10000D-02 Tol=  0.10000D-05 Strict=F.
 There are   124 symmetry adapted cartesian basis functions of A   symmetry.
 There are   120 symmetry adapted basis functions of A   symmetry.
   120 basis functions,   200 primitive gaussians,   124 cartesian basis functions
    22 alpha electrons       22 beta electrons
       nuclear repulsion energy        59.4741976359 Hartrees.
 IExCor=  402 DFT=T Ex+Corr=B3LYP ExCW=0 ScaHFX=  0.200000
 ScaDFX=  0.800000  0.720000  1.000000  0.810000 ScalE2=  1.000000  1.000000
 IRadAn=      5 IRanWt=     -1 IRanGd=            0 ICorTp=0 IEmpDi=  4
 NAtoms=    4 NActive=    4 NUniq=    4 SFac= 1.00D+00 NAtFMM=   60 NAOKFM=F Big=F
 Integral buffers will be    131072 words long.
 Raffenetti 2 integral format.
 Two-electron integral symmetry is turned on.
 Leave Link  301 at Tue Aug  8 11:07:07 2023, MaxMem=  1610612736 cpu:               0.3 elap:               0.0
 (Enter /home/sekinelabo/g16/l302.exe)
 NPDir=0 NMtPBC=     1 NCelOv=     1 NCel=       1 NClECP=     1 NCelD=      1
         NCelK=      1 NCelE2=     1 NClLst=     1 CellRange=     0.0.
 One-electron integrals computed using PRISM.
 One-electron integral symmetry used in STVInt
 NBasis=   120 RedAO= T EigKep=  1.95D-04  NBF=   120
 NBsUse=   120 1.00D-06 EigRej= -1.00D+00 NBFU=   120
 Precomputing XC quadrature grid using
 IXCGrd= 4 IRadAn=           5 IRanWt=          -1 IRanGd=           0 AccXCQ= 0.00D+00.
 Generated NRdTot=       0 NPtTot=           0 NUsed=           0 NTot=          32
 NSgBfM=   115   115   115   115   115 MxSgAt=     4 MxSgA2=     4.
 Leave Link  302 at Tue Aug  8 11:07:07 2023, MaxMem=  1610612736 cpu:               1.3 elap:               0.1
 (Enter /home/sekinelabo/g16/l303.exe)
 DipDrv:  MaxL=1.
 Leave Link  303 at Tue Aug  8 11:07:07 2023, MaxMem=  1610612736 cpu:               0.3 elap:               0.0
 (Enter /home/sekinelabo/g16/l401.exe)
 ExpMin= 7.60D-03 ExpMax= 3.62D+04 ExpMxC= 1.21D+03 IAcc=3 IRadAn=         5 AccDes= 0.00D+00
 Harris functional with IExCor=  402 and IRadAn=       5 diagonalized for initial guess.
 HarFok:  IExCor=  402 AccDes= 0.00D+00 IRadAn=         5 IDoV= 1 UseB2=F ITyADJ=14
 ICtDFT=  3500011 ScaDFX=  1.000000  1.000000  1.000000  1.000000
 FoFCou: FMM=F IPFlag=           0 FMFlag=      100000 FMFlg1=           0
         NFxFlg=           0 DoJE=T BraDBF=F KetDBF=T FulRan=T
         wScrn=  0.000000 ICntrl=       500 IOpCl=  0 I1Cent=   200000004 NGrid=           0
         NMat0=    1 NMatS0=      1 NMatT0=    0 NMatD0=    1 NMtDS0=    0 NMtDT0=    0
 Petite list used in FoFCou.
 Harris En= -649.026138582140    
 JPrj=0 DoOrth=F DoCkMO=F.
 Leave Link  401 at Tue Aug  8 11:07:07 2023, MaxMem=  1610612736 cpu:               1.9 elap:               0.1
 (Enter /home/sekinelabo/g16/l502.exe)
 Keep R1 ints in memory in canonical form, NReq=41581754.
 FoFCou: FMM=F IPFlag=           0 FMFlag=           0 FMFlg1=           0
         NFxFlg=           0 DoJE=F BraDBF=F KetDBF=F FulRan=T
         wScrn=  0.000000 ICntrl=       600 IOpCl=  0 I1Cent=           0 NGrid=           0
         NMat0=    1 NMatS0=   7260 NMatT0=    0 NMatD0=    1 NMtDS0=    0 NMtDT0=    0
 Symmetry not used in FoFCou.
 Two-electron integral symmetry not used.
 Closed shell SCF:
 Using DIIS extrapolation, IDIIS=  1040.
 NGot=  1610612736 LenX=  1584221388 LenY=  1584205571
 Requested convergence on RMS density matrix=1.00D-08 within 128 cycles.
 Requested convergence on MAX density matrix=1.00D-06.
 Requested convergence on             energy=1.00D-06.
 No special actions if energy rises.

 Cycle   1  Pass 1  IDiag  1:
 E= -649.133182129644    
 DIIS: error= 1.80D-02 at cycle   1 NSaved=   1.
 NSaved= 1 IEnMin= 1 EnMin= -649.133182129644     IErMin= 1 ErrMin= 1.80D-02
 ErrMax= 1.80D-02  0.00D+00 EMaxC= 1.00D-01 BMatC= 2.74D-02 BMatP= 2.74D-02
 IDIUse=3 WtCom= 8.20D-01 WtEn= 1.80D-01
 Coeff-Com:  0.100D+01
 Coeff-En:   0.100D+01
 Coeff:      0.100D+01
 Gap=     0.011 Goal=   None    Shift=    0.000
 GapD=    0.011 DampG=0.250 DampE=0.500 DampFc=0.2500 IDamp=-1.
 Damping current iteration by 2.50D-01
 RMSDP=9.04D-03 MaxDP=3.54D-01              OVMax= 9.91D-01

 Cycle   2  Pass 1  IDiag  1:
 E= -649.122678708188     Delta-E=        0.010503421456 Rises=F Damp=T
 DIIS: error= 1.29D-02 at cycle   2 NSaved=   2.
 NSaved= 2 IEnMin= 1 EnMin= -649.133182129644     IErMin= 2 ErrMin= 1.29D-02
 ErrMax= 1.29D-02  0.00D+00 EMaxC= 1.00D-01 BMatC= 1.04D-02 BMatP= 2.74D-02
 IDIUse=3 WtCom= 8.71D-01 WtEn= 1.29D-01
 Coeff-Com: -0.948D+00 0.195D+01
 Coeff-En:   0.777D+00 0.223D+00
 Coeff:     -0.726D+00 0.173D+01
 Gap=    -0.095 Goal=   None    Shift=    0.000
 RMSDP=1.07D-02 MaxDP=5.00D-01 DE= 1.05D-02 OVMax= 9.75D-01

 Cycle   3  Pass 1  IDiag  1:
 E= -648.783475604611     Delta-E=        0.339203103577 Rises=F Damp=F
 DIIS: error= 2.10D-02 at cycle   3 NSaved=   3.
 NSaved= 3 IEnMin= 1 EnMin= -649.133182129644     IErMin= 2 ErrMin= 1.29D-02
 ErrMax= 2.10D-02  0.00D+00 EMaxC= 1.00D-01 BMatC= 2.22D-02 BMatP= 1.04D-02
 IDIUse=2 WtCom= 0.00D+00 WtEn= 1.00D+00
 Rare condition: small coef for last iteration:  0.000D+00
 Coeff-En:   0.878D+00 0.118D+00 0.437D-02
 Coeff:      0.878D+00 0.118D+00 0.437D-02
 Gap=    -0.020 Goal=   None    Shift=    0.000
 RMSDP=1.10D-02 MaxDP=5.91D-01 DE= 3.39D-01 OVMax= 8.93D-01

 Cycle   4  Pass 1  IDiag  1:
 E= -649.133791637570     Delta-E=       -0.350316032959 Rises=F Damp=F
 DIIS: error= 9.45D-03 at cycle   4 NSaved=   4.
 NSaved= 4 IEnMin= 4 EnMin= -649.133791637570     IErMin= 4 ErrMin= 9.45D-03
 ErrMax= 9.45D-03  0.00D+00 EMaxC= 1.00D-01 BMatC= 1.60D-02 BMatP= 1.04D-02
 IDIUse=3 WtCom= 9.33D-02 WtEn= 9.07D-01
 EnCoef did   100 forward-backward iterations
 Coeff-Com: -0.884D-01 0.623D+00 0.151D+00 0.315D+00
 Coeff-En:   0.488D+00 0.321D-02 0.000D+00 0.509D+00
 Coeff:      0.435D+00 0.610D-01 0.141D-01 0.490D+00
 Gap=     0.016 Goal=   None    Shift=    0.000
 RMSDP=3.36D-03 MaxDP=1.70D-01 DE=-3.50D-01 OVMax= 3.45D-01

 Cycle   5  Pass 1  IDiag  1:
 E= -649.135807344637     Delta-E=       -0.002015707067 Rises=F Damp=F
 DIIS: error= 4.47D-03 at cycle   5 NSaved=   5.
 NSaved= 5 IEnMin= 5 EnMin= -649.135807344637     IErMin= 5 ErrMin= 4.47D-03
 ErrMax= 4.47D-03  0.00D+00 EMaxC= 1.00D-01 BMatC= 1.73D-03 BMatP= 1.04D-02
 IDIUse=3 WtCom= 9.55D-01 WtEn= 4.47D-02
 Coeff-Com:  0.168D+00 0.120D-01 0.107D-01 0.210D+00 0.599D+00
 Coeff-En:   0.000D+00 0.000D+00 0.000D+00 0.471D+00 0.529D+00
 Coeff:      0.161D+00 0.114D-01 0.102D-01 0.222D+00 0.596D+00
 Gap=     0.005 Goal=   None    Shift=    0.000
 RMSDP=5.16D-03 MaxDP=2.61D-01 DE=-2.02D-03 OVMax= 4.49D-01

 Cycle   6  Pass 1  IDiag  1:
 E= -649.104950205090     Delta-E=        0.030857139547 Rises=F Damp=F
 DIIS: error= 8.63D-03 at cycle   6 NSaved=   6.
 NSaved= 6 IEnMin= 5 EnMin= -649.135807344637     IErMin= 5 ErrMin= 4.47D-03
 ErrMax= 8.63D-03  0.00D+00 EMaxC= 1.00D-01 BMatC= 4.82D-03 BMatP= 1.73D-03
 IDIUse=3 WtCom= 9.55D-01 WtEn= 4.47D-02
 EnCoef did    32 forward-backward iterations
 Coeff-Com:  0.140D+00-0.159D+00-0.152D-01 0.365D-01 0.636D+00 0.361D+00
 Coeff-En:   0.000D+00 0.000D+00 0.000D+00 0.256D+00 0.591D+00 0.153D+00
 Coeff:      0.134D+00-0.151D+00-0.145D-01 0.463D-01 0.634D+00 0.352D+00
 Gap=     0.012 Goal=   None    Shift=    0.000
 RMSDP=4.17D-03 MaxDP=2.65D-01 DE= 3.09D-02 OVMax= 3.47D-01

 Cycle   7  Pass 1  IDiag  1:
 E= -649.141236299533     Delta-E=       -0.036286094442 Rises=F Damp=F
 DIIS: error= 4.57D-03 at cycle   7 NSaved=   7.
 NSaved= 7 IEnMin= 7 EnMin= -649.141236299533     IErMin= 5 ErrMin= 4.47D-03
 ErrMax= 4.57D-03  0.00D+00 EMaxC= 1.00D-01 BMatC= 9.20D-04 BMatP= 1.73D-03
 IDIUse=3 WtCom= 9.55D-01 WtEn= 4.47D-02
 EnCoef did   100 forward-backward iterations
 Coeff-Com:  0.122D+00-0.157D+00-0.131D-01 0.231D-01 0.480D+00 0.304D+00
 Coeff-Com:  0.241D+00
 Coeff-En:   0.000D+00 0.000D+00 0.000D+00 0.150D-01 0.412D+00 0.207D+00
 Coeff-En:   0.367D+00
 Coeff:      0.116D+00-0.150D+00-0.126D-01 0.227D-01 0.477D+00 0.299D+00
 Coeff:      0.247D+00
 Gap=     0.018 Goal=   None    Shift=    0.000
 RMSDP=1.53D-03 MaxDP=8.38D-02 DE=-3.63D-02 OVMax= 1.21D-01

 Cycle   8  Pass 1  IDiag  1:
 E= -649.148341779826     Delta-E=       -0.007105480293 Rises=F Damp=F
 DIIS: error= 8.02D-04 at cycle   8 NSaved=   8.
 NSaved= 8 IEnMin= 8 EnMin= -649.148341779826     IErMin= 8 ErrMin= 8.02D-04
 ErrMax= 8.02D-04  0.00D+00 EMaxC= 1.00D-01 BMatC= 3.95D-05 BMatP= 9.20D-04
 IDIUse=3 WtCom= 9.92D-01 WtEn= 8.02D-03
 Coeff-Com:  0.361D-01-0.500D-01-0.366D-02 0.200D-01-0.574D-02 0.618D-02
 Coeff-Com:  0.169D+00 0.828D+00
 Coeff-En:   0.000D+00 0.000D+00 0.000D+00 0.000D+00 0.000D+00 0.000D+00
 Coeff-En:   0.877D-01 0.912D+00
 Coeff:      0.358D-01-0.496D-01-0.363D-02 0.199D-01-0.569D-02 0.613D-02
 Coeff:      0.169D+00 0.828D+00
 Gap=     0.019 Goal=   None    Shift=    0.000
 RMSDP=2.96D-04 MaxDP=1.44D-02 DE=-7.11D-03 OVMax= 2.82D-02

 Cycle   9  Pass 1  IDiag  1:
 E= -649.148643680871     Delta-E=       -0.000301901045 Rises=F Damp=F
 DIIS: error= 1.68D-04 at cycle   9 NSaved=   9.
 NSaved= 9 IEnMin= 9 EnMin= -649.148643680871     IErMin= 9 ErrMin= 1.68D-04
 ErrMax= 1.68D-04  0.00D+00 EMaxC= 1.00D-01 BMatC= 1.17D-06 BMatP= 3.95D-05
 IDIUse=3 WtCom= 9.98D-01 WtEn= 1.68D-03
 Coeff-Com:  0.176D-01-0.236D-01-0.617D-03 0.100D-01-0.249D-01-0.574D-02
 Coeff-Com:  0.467D-01 0.230D+00 0.750D+00
 Coeff-En:   0.000D+00 0.000D+00 0.000D+00 0.000D+00 0.000D+00 0.000D+00
 Coeff-En:   0.000D+00 0.000D+00 0.100D+01
 Coeff:      0.176D-01-0.236D-01-0.615D-03 0.100D-01-0.249D-01-0.573D-02
 Coeff:      0.466D-01 0.230D+00 0.751D+00
 Gap=     0.019 Goal=   None    Shift=    0.000
 RMSDP=6.95D-05 MaxDP=3.00D-03 DE=-3.02D-04 OVMax= 6.16D-03

 Cycle  10  Pass 1  IDiag  1:
 E= -649.148653988661     Delta-E=       -0.000010307790 Rises=F Damp=F
 DIIS: error= 7.68D-05 at cycle  10 NSaved=  10.
 NSaved=10 IEnMin=10 EnMin= -649.148653988661     IErMin=10 ErrMin= 7.68D-05
 ErrMax= 7.68D-05  0.00D+00 EMaxC= 1.00D-01 BMatC= 2.60D-07 BMatP= 1.17D-06
 IDIUse=1 WtCom= 1.00D+00 WtEn= 0.00D+00
 Coeff-Com:  0.103D-01-0.138D-01 0.116D-03 0.390D-02-0.569D-02-0.483D-02
 Coeff-Com:  0.560D-02 0.281D-01 0.152D+00 0.825D+00
 Coeff:      0.103D-01-0.138D-01 0.116D-03 0.390D-02-0.569D-02-0.483D-02
 Coeff:      0.560D-02 0.281D-01 0.152D+00 0.825D+00
 Gap=     0.019 Goal=   None    Shift=    0.000
 RMSDP=4.60D-05 MaxDP=1.33D-03 DE=-1.03D-05 OVMax= 5.72D-03

 Cycle  11  Pass 1  IDiag  1:
 E= -649.148658185300     Delta-E=       -0.000004196639 Rises=F Damp=F
 DIIS: error= 4.89D-05 at cycle  11 NSaved=  11.
 NSaved=11 IEnMin=11 EnMin= -649.148658185300     IErMin=11 ErrMin= 4.89D-05
 ErrMax= 4.89D-05  0.00D+00 EMaxC= 1.00D-01 BMatC= 9.38D-08 BMatP= 2.60D-07
 IDIUse=1 WtCom= 1.00D+00 WtEn= 0.00D+00
 Coeff-Com:  0.292D-02-0.393D-02 0.296D-03 0.606D-04 0.282D-02-0.142D-02
 Coeff-Com: -0.173D-01-0.574D-01-0.237D+00-0.219D+00 0.153D+01
 Coeff:      0.292D-02-0.393D-02 0.296D-03 0.606D-04 0.282D-02-0.142D-02
 Coeff:     -0.173D-01-0.574D-01-0.237D+00-0.219D+00 0.153D+01
 Gap=     0.019 Goal=   None    Shift=    0.000
 RMSDP=6.12D-05 MaxDP=1.85D-03 DE=-4.20D-06 OVMax= 7.26D-03

 Cycle  12  Pass 1  IDiag  1:
 E= -649.148660925243     Delta-E=       -0.000002739944 Rises=F Damp=F
 DIIS: error= 3.12D-05 at cycle  12 NSaved=  12.
 NSaved=12 IEnMin=12 EnMin= -649.148660925243     IErMin=12 ErrMin= 3.12D-05
 ErrMax= 3.12D-05  0.00D+00 EMaxC= 1.00D-01 BMatC= 3.23D-08 BMatP= 9.38D-08
 IDIUse=1 WtCom= 1.00D+00 WtEn= 0.00D+00
 Coeff-Com:  0.108D-02-0.146D-02-0.355D-05 0.716D-04 0.196D-02-0.367D-03
 Coeff-Com: -0.656D-02-0.118D-01-0.168D-01-0.185D+00-0.978D-02 0.123D+01
 Coeff:      0.108D-02-0.146D-02-0.355D-05 0.716D-04 0.196D-02-0.367D-03
 Coeff:     -0.656D-02-0.118D-01-0.168D-01-0.185D+00-0.978D-02 0.123D+01
 Gap=     0.019 Goal=   None    Shift=    0.000
 RMSDP=2.98D-05 MaxDP=9.61D-04 DE=-2.74D-06 OVMax= 3.58D-03

 Cycle  13  Pass 1  IDiag  1:
 E= -649.148661558597     Delta-E=       -0.000000633354 Rises=F Damp=F
 DIIS: error= 6.96D-06 at cycle  13 NSaved=  13.
 NSaved=13 IEnMin=13 EnMin= -649.148661558597     IErMin=13 ErrMin= 6.96D-06
 ErrMax= 6.96D-06  0.00D+00 EMaxC= 1.00D-01 BMatC= 2.65D-09 BMatP= 3.23D-08
 IDIUse=1 WtCom= 1.00D+00 WtEn= 0.00D+00
 Coeff-Com:  0.505D-03-0.688D-03 0.746D-05 0.157D-03 0.151D-03-0.692D-04
 Coeff-Com: -0.104D-02 0.194D-02 0.215D-01-0.321D-01-0.187D+00 0.347D+00
 Coeff-Com:  0.849D+00
 Coeff:      0.505D-03-0.688D-03 0.746D-05 0.157D-03 0.151D-03-0.692D-04
 Coeff:     -0.104D-02 0.194D-02 0.215D-01-0.321D-01-0.187D+00 0.347D+00
 Coeff:      0.849D+00
 Gap=     0.019 Goal=   None    Shift=    0.000
 RMSDP=5.73D-06 MaxDP=1.86D-04 DE=-6.33D-07 OVMax= 6.16D-04

 Cycle  14  Pass 1  IDiag  1:
 E= -649.148661581872     Delta-E=       -0.000000023274 Rises=F Damp=F
 DIIS: error= 3.84D-06 at cycle  14 NSaved=  14.
 NSaved=14 IEnMin=14 EnMin= -649.148661581872     IErMin=14 ErrMin= 3.84D-06
 ErrMax= 3.84D-06  0.00D+00 EMaxC= 1.00D-01 BMatC= 4.51D-10 BMatP= 2.65D-09
 IDIUse=1 WtCom= 1.00D+00 WtEn= 0.00D+00
 Coeff-Com:  0.325D-03-0.433D-03 0.140D-05 0.894D-04 0.922D-04-0.612D-04
 Coeff-Com:  0.137D-03-0.999D-03-0.769D-02 0.797D-02 0.568D-01-0.161D+00
 Coeff-Com: -0.129D+00 0.123D+01
 Coeff:      0.325D-03-0.433D-03 0.140D-05 0.894D-04 0.922D-04-0.612D-04
 Coeff:      0.137D-03-0.999D-03-0.769D-02 0.797D-02 0.568D-01-0.161D+00
 Coeff:     -0.129D+00 0.123D+01
 Gap=     0.019 Goal=   None    Shift=    0.000
 RMSDP=7.60D-07 MaxDP=2.79D-05 DE=-2.33D-08 OVMax= 6.64D-05

 Cycle  15  Pass 1  IDiag  1:
 E= -649.148661585294     Delta-E=       -0.000000003422 Rises=F Damp=F
 DIIS: error= 2.33D-06 at cycle  15 NSaved=  15.
 NSaved=15 IEnMin=15 EnMin= -649.148661585294     IErMin=15 ErrMin= 2.33D-06
 ErrMax= 2.33D-06  0.00D+00 EMaxC= 1.00D-01 BMatC= 2.34D-10 BMatP= 4.51D-10
 IDIUse=1 WtCom= 1.00D+00 WtEn= 0.00D+00
 Coeff-Com:  0.109D-03-0.145D-03 0.132D-05 0.151D-04 0.213D-03-0.581D-04
 Coeff-Com: -0.733D-04-0.179D-02-0.690D-02-0.112D-01 0.470D-01 0.874D-02
 Coeff-Com: -0.454D-01-0.125D+01 0.226D+01
 Coeff:      0.109D-03-0.145D-03 0.132D-05 0.151D-04 0.213D-03-0.581D-04
 Coeff:     -0.733D-04-0.179D-02-0.690D-02-0.112D-01 0.470D-01 0.874D-02
 Coeff:     -0.454D-01-0.125D+01 0.226D+01
 Gap=     0.019 Goal=   None    Shift=    0.000
 RMSDP=1.52D-06 MaxDP=5.02D-05 DE=-3.42D-09 OVMax= 1.55D-04

 Cycle  16  Pass 1  IDiag  1:
 E= -649.148661588265     Delta-E=       -0.000000002971 Rises=F Damp=F
 DIIS: error= 1.05D-06 at cycle  16 NSaved=  16.
 NSaved=16 IEnMin=16 EnMin= -649.148661588265     IErMin=16 ErrMin= 1.05D-06
 ErrMax= 1.05D-06  0.00D+00 EMaxC= 1.00D-01 BMatC= 5.25D-11 BMatP= 2.34D-10
 IDIUse=1 WtCom= 1.00D+00 WtEn= 0.00D+00
 Coeff-Com: -0.730D-05 0.940D-05 0.144D-05-0.776D-05 0.537D-04-0.949D-05
 Coeff-Com: -0.526D-04-0.340D-03 0.472D-03-0.133D-02-0.491D-02 0.998D-02
 Coeff-Com:  0.477D-01-0.254D+00-0.252D+00 0.145D+01
 Coeff:     -0.730D-05 0.940D-05 0.144D-05-0.776D-05 0.537D-04-0.949D-05
 Coeff:     -0.526D-04-0.340D-03 0.472D-03-0.133D-02-0.491D-02 0.998D-02
 Coeff:      0.477D-01-0.254D+00-0.252D+00 0.145D+01
 Gap=     0.019 Goal=   None    Shift=    0.000
 RMSDP=7.18D-07 MaxDP=2.33D-05 DE=-2.97D-09 OVMax= 6.34D-05

 Cycle  17  Pass 1  IDiag  1:
 E= -649.148661588932     Delta-E=       -0.000000000667 Rises=F Damp=F
 DIIS: error= 1.24D-07 at cycle  17 NSaved=  17.
 NSaved=17 IEnMin=17 EnMin= -649.148661588932     IErMin=17 ErrMin= 1.24D-07
 ErrMax= 1.24D-07  0.00D+00 EMaxC= 1.00D-01 BMatC= 6.97D-13 BMatP= 5.25D-11
 IDIUse=1 WtCom= 1.00D+00 WtEn= 0.00D+00
 Coeff-Com: -0.389D-05 0.512D-05 0.325D-07-0.237D-05 0.753D-05-0.542D-06
 Coeff-Com: -0.218D-04 0.598D-05 0.559D-03 0.309D-03-0.328D-02 0.100D-02
 Coeff-Com:  0.835D-02 0.415D-01-0.164D+00 0.199D+00 0.917D+00
 Coeff:     -0.389D-05 0.512D-05 0.325D-07-0.237D-05 0.753D-05-0.542D-06
 Coeff:     -0.218D-04 0.598D-05 0.559D-03 0.309D-03-0.328D-02 0.100D-02
 Coeff:      0.835D-02 0.415D-01-0.164D+00 0.199D+00 0.917D+00
 Gap=     0.019 Goal=   None    Shift=    0.000
 RMSDP=6.43D-08 MaxDP=2.96D-06 DE=-6.67D-10 OVMax= 7.49D-06

 Cycle  18  Pass 1  IDiag  1:
 E= -649.148661588936     Delta-E=       -0.000000000005 Rises=F Damp=F
 DIIS: error= 4.92D-08 at cycle  18 NSaved=  18.
 NSaved=18 IEnMin=18 EnMin= -649.148661588936     IErMin=18 ErrMin= 4.92D-08
 ErrMax= 4.92D-08  0.00D+00 EMaxC= 1.00D-01 BMatC= 9.08D-14 BMatP= 6.97D-13
 IDIUse=1 WtCom= 1.00D+00 WtEn= 0.00D+00
 Coeff-Com: -0.328D-06 0.451D-06-0.765D-09-0.537D-06-0.304D-07 0.140D-06
 Coeff-Com: -0.550D-05-0.401D-05 0.498D-04 0.170D-03 0.856D-04-0.733D-03
 Coeff-Com: -0.295D-02 0.429D-01-0.293D-01-0.778D-01 0.310D+00 0.758D+00
 Coeff:     -0.328D-06 0.451D-06-0.765D-09-0.537D-06-0.304D-07 0.140D-06
 Coeff:     -0.550D-05-0.401D-05 0.498D-04 0.170D-03 0.856D-04-0.733D-03
 Coeff:     -0.295D-02 0.429D-01-0.293D-01-0.778D-01 0.310D+00 0.758D+00
 Gap=     0.019 Goal=   None    Shift=    0.000
 RMSDP=2.20D-08 MaxDP=8.26D-07 DE=-4.55D-12 OVMax= 2.11D-06

 Cycle  19  Pass 1  IDiag  1:
 E= -649.148661588937     Delta-E=       -0.000000000000 Rises=F Damp=F
 DIIS: error= 6.51D-09 at cycle  19 NSaved=  19.
 NSaved=19 IEnMin=19 EnMin= -649.148661588937     IErMin=19 ErrMin= 6.51D-09
 ErrMax= 6.51D-09  0.00D+00 EMaxC= 1.00D-01 BMatC= 1.94D-15 BMatP= 9.08D-14
 IDIUse=1 WtCom= 1.00D+00 WtEn= 0.00D+00
 Large coefficients: NSaved= 19 BigCof=    0.00 CofMax=   10.00 Det=-6.10D-15
 Inversion failed.  Reducing to 18 matrices.
 Large coefficients: NSaved= 18 BigCof=    0.00 CofMax=   10.00 Det=-6.10D-15
 Inversion failed.  Reducing to 17 matrices.
 Large coefficients: NSaved= 17 BigCof=    0.00 CofMax=   10.00 Det=-6.12D-15
 Inversion failed.  Reducing to 16 matrices.
 Large coefficients: NSaved= 16 BigCof=    0.00 CofMax=   10.00 Det=-6.12D-15
 Inversion failed.  Reducing to 15 matrices.
 Coeff-Com: -0.107D-07-0.507D-06 0.162D-06-0.422D-05-0.325D-04 0.232D-05
 Coeff-Com:  0.320D-03-0.209D-03-0.102D-02 0.170D-03 0.917D-02-0.175D-01
 Coeff-Com: -0.154D-01 0.930D-01 0.932D+00
 Coeff:     -0.107D-07-0.507D-06 0.162D-06-0.422D-05-0.325D-04 0.232D-05
 Coeff:      0.320D-03-0.209D-03-0.102D-02 0.170D-03 0.917D-02-0.175D-01
 Coeff:     -0.154D-01 0.930D-01 0.932D+00
 Gap=     0.019 Goal=   None    Shift=    0.000
 RMSDP=5.15D-09 MaxDP=1.64D-07 DE=-4.55D-13 OVMax= 6.24D-07

 SCF Done:  E(RB3LYP) =  -649.148661589     A.U. after   19 cycles
            NFock= 19  Conv=0.52D-08     -V/T= 2.0030
 KE= 6.471763810118D+02 PE=-1.677461172960D+03 EE= 3.216619327233D+02
 Leave Link  502 at Tue Aug  8 11:07:09 2023, MaxMem=  1610612736 cpu:              23.9 elap:               1.8
 (Enter /home/sekinelabo/g16/l601.exe)
 Copying SCF densities to generalized density rwf, IOpCl= 0 IROHF=0.

 **********************************************************************

            Population analysis using the SCF Density.

 **********************************************************************

 Orbital symmetries:
       Occupied  (A) (A) (A) (A) (A) (A) (A) (A) (A) (A) (A) (A)
                 (A) (A) (A) (A) (A) (A) (A) (A) (A) (A)
       Virtual   (A) (A) (A) (A) (A) (A) (A) (A) (A) (A) (A) (A)
                 (A) (A) (A) (A) (A) (A) (A) (A) (A) (A) (A) (A)
                 (A) (A) (A) (A) (A) (A) (A) (A) (A) (A) (A) (A)
                 (A) (A) (A) (A) (A) (A) (A) (A) (A) (A) (A) (A)
                 (A) (A) (A) (A) (A) (A) (A) (A) (A) (A) (A) (A)
                 (A) (A) (A) (A) (A) (A) (A) (A) (A) (A) (A) (A)
                 (A) (A) (A) (A) (A) (A) (A) (A) (A) (A) (A) (A)
                 (A) (A) (A) (A) (A) (A) (A) (A) (A) (A) (A) (A)
                 (A) (A)
 The electronic state is 1-A.
 Alpha  occ. eigenvalues --  -38.47513 -38.47324 -38.45437 -38.44929  -2.23175
 Alpha  occ. eigenvalues --   -2.22989  -2.21107  -2.20609  -1.16851  -1.16847
 Alpha  occ. eigenvalues --   -1.16819  -1.16665  -1.16661  -1.16633  -1.14794
 Alpha  occ. eigenvalues --   -1.14792  -1.14727  -1.14289  -1.14289  -1.14239
 Alpha  occ. eigenvalues --   -0.12539  -0.10995
 Alpha virt. eigenvalues --   -0.09113  -0.07092  -0.02836  -0.02704  -0.02421
 Alpha virt. eigenvalues --   -0.02112  -0.01419  -0.01181  -0.00924  -0.00553
 Alpha virt. eigenvalues --   -0.00321   0.00315   0.00387   0.00429   0.00797
 Alpha virt. eigenvalues --    0.01229   0.01290   0.01548   0.01664   0.01712
 Alpha virt. eigenvalues --    0.01743   0.01797   0.01875   0.02262   0.02477
 Alpha virt. eigenvalues --    0.02594   0.02664   0.03095   0.03760   0.04126
 Alpha virt. eigenvalues --    0.06691   0.07314   0.07463   0.07656   0.07858
 Alpha virt. eigenvalues --    0.07994   0.08487   0.08573   0.08903   0.09005
 Alpha virt. eigenvalues --    0.09177   0.09431   0.10381   0.11179   0.11422
 Alpha virt. eigenvalues --    0.12906   0.32445   0.32997   0.33415   0.33437
 Alpha virt. eigenvalues --    0.33445   0.33609   0.33645   0.33706   0.33748
 Alpha virt. eigenvalues --    0.34311   0.34463   0.34778   0.35000   0.35229
 Alpha virt. eigenvalues --    0.35450   0.35472   0.35833   0.36513   0.36613
 Alpha virt. eigenvalues --    0.38425   0.41151   0.41564   0.41660   0.42109
 Alpha virt. eigenvalues --    0.42824   0.43236   0.43745   0.44315   0.44677
 Alpha virt. eigenvalues --    0.45541   0.47346   0.48983   1.99766   2.00544
 Alpha virt. eigenvalues --    2.01571   2.03818   4.40754   4.41138   4.41309
 Alpha virt. eigenvalues --    4.41759   4.41851   4.43349   4.43404   4.43804
 Alpha virt. eigenvalues --    4.44354   4.44731   4.44946   4.47237  96.18739
 Alpha virt. eigenvalues --   96.19664  96.20738  96.23219
          Condensed to atoms (all electrons):
               1          2          3          4
     1  Na  10.846404   0.126764   0.010378  -0.005531
     2  Na   0.126764  10.857414  -0.026867  -0.009783
     3  Na   0.010378  -0.026867  10.914217   0.202393
     4  Na  -0.005531  -0.009783   0.202393  10.787259
 Mulliken charges:
               1
     1  Na   0.021985
     2  Na   0.052473
     3  Na  -0.100120
     4  Na   0.025662
 Sum of Mulliken charges =  -0.00000
 Mulliken charges with hydrogens summed into heavy atoms:
               1
     1  Na   0.021985
     2  Na   0.052473
     3  Na  -0.100120
     4  Na   0.025662
 Electronic spatial extent (au):  <R**2>=           3262.8664
 Charge=             -0.0000 electrons
 Dipole moment (field-independent basis, Debye):
    X=              2.8035    Y=              0.5610    Z=             -0.0167  Tot=              2.8591
 Quadrupole moment (field-independent basis, Debye-Ang):
   XX=            -37.8124   YY=            -30.6727   ZZ=            -47.7634
   XY=             -5.5307   XZ=              0.1692   YZ=              0.0256
 Traceless Quadrupole moment (field-independent basis, Debye-Ang):
   XX=              0.9371   YY=              8.0768   ZZ=             -9.0139
   XY=             -5.5307   XZ=              0.1692   YZ=              0.0256
 Octapole moment (field-independent basis, Debye-Ang**2):
  XXX=            -32.2977  YYY=             26.4460  ZZZ=             -0.0856  XYY=             62.0166
  XXY=            -12.6425  XXZ=             -2.2312  XZZ=              7.0535  YZZ=              1.1609
  YYZ=             -0.2061  XYZ=              0.4946
 Hexadecapole moment (field-independent basis, Debye-Ang**3):
 XXXX=          -3835.6489 YYYY=          -1002.3928 ZZZZ=           -231.3719 XXXY=           -254.6462
 XXXZ=              9.1332 YYYX=              2.9778 YYYZ=              0.7095 ZZZX=              0.9981
 ZZZY=              0.1391 XXYY=           -800.2298 XXZZ=           -835.0787 YYZZ=           -235.7904
 XXYZ=              1.8899 YYXZ=             -0.8149 ZZXY=            -11.2727
 N-N= 5.947419763588D+01 E-N=-1.677461172810D+03  KE= 6.471763810118D+02
 No NMR shielding tensors so no spin-rotation constants.
 Leave Link  601 at Tue Aug  8 11:07:09 2023, MaxMem=  1610612736 cpu:               0.9 elap:               0.1
 (Enter /home/sekinelabo/g16/l701.exe)
 ... and contract with generalized density number  0.
 Compute integral first derivatives.
 Leave Link  701 at Tue Aug  8 11:07:09 2023, MaxMem=  1610612736 cpu:               1.3 elap:               0.1
 (Enter /home/sekinelabo/g16/l702.exe)
 L702 exits ... SP integral derivatives will be done elsewhere.
 Leave Link  702 at Tue Aug  8 11:07:09 2023, MaxMem=  1610612736 cpu:               0.3 elap:               0.0
 (Enter /home/sekinelabo/g16/l703.exe)
 Integral derivatives from FoFJK, PRISM(SPDF).
 Compute integral first derivatives, UseDBF=F ICtDFT=           0.
 Calling FoFJK, ICntrl=      2127 FMM=F ISym2X=0 I1Cent= 0 IOpClX= 0 NMat=1 NMatS=1 NMatT=0.
 FoFJK:  IHMeth= 1 ICntrl=    2127 DoSepK=F KAlg= 0 I1Cent=           0 FoldK=F
 IRaf=         0 NMat=       1 IRICut=       1 DoRegI=T DoRafI=F ISym2E= 0 IDoP0=0 IntGTp=1.
 FoFCou: FMM=F IPFlag=           0 FMFlag=      100000 FMFlg1=         800
         NFxFlg=           0 DoJE=F BraDBF=F KetDBF=F FulRan=T
         wScrn=  0.000000 ICntrl=      2127 IOpCl=  0 I1Cent=           0 NGrid=           0
         NMat0=    1 NMatS0=      1 NMatT0=    0 NMatD0=    1 NMtDS0=    0 NMtDT0=    0
 Symmetry not used in FoFCou.
 Leave Link  703 at Tue Aug  8 11:07:10 2023, MaxMem=  1610612736 cpu:               5.2 elap:               0.3
 (Enter /home/sekinelabo/g16/l716.exe)
 Dipole        = 1.10298925D+00 2.20703216D-01-6.57361092D-03
 ***** Axes restored to original set *****
 -------------------------------------------------------------------
 Center     Atomic                   Forces (Hartrees/Bohr)
 Number     Number              X              Y              Z
 -------------------------------------------------------------------
      1       11          -0.004485612    0.000003288    0.003161126
      2       11           0.005009338    0.000002036   -0.002093221
      3       11          -0.000512917   -0.000323896    0.006061979
      4       11          -0.000010810    0.000318573   -0.007129883
 -------------------------------------------------------------------
 Cartesian Forces:  Max     0.007129883 RMS     0.003507621
 Z-matrix is all fixed cartesians, so copy forces.
 Force constants in Cartesian coordinates: 
                1             2             3             4             5 
      1  0.100000D+01
      2  0.000000D+00  0.100000D+01
      3  0.000000D+00  0.000000D+00  0.100000D+01
      4  0.000000D+00  0.000000D+00  0.000000D+00  0.100000D+01
      5  0.000000D+00  0.000000D+00  0.000000D+00  0.000000D+00  0.100000D+01
      6  0.000000D+00  0.000000D+00  0.000000D+00  0.000000D+00  0.000000D+00
      7  0.000000D+00  0.000000D+00  0.000000D+00  0.000000D+00  0.000000D+00
      8  0.000000D+00  0.000000D+00  0.000000D+00  0.000000D+00  0.000000D+00
      9  0.000000D+00  0.000000D+00  0.000000D+00  0.000000D+00  0.000000D+00
     10  0.000000D+00  0.000000D+00  0.000000D+00  0.000000D+00  0.000000D+00
     11  0.000000D+00  0.000000D+00  0.000000D+00  0.000000D+00  0.000000D+00
     12  0.000000D+00  0.000000D+00  0.000000D+00  0.000000D+00  0.000000D+00
                6             7             8             9            10 
      6  0.100000D+01
      7  0.000000D+00  0.100000D+01
      8  0.000000D+00  0.000000D+00  0.100000D+01
      9  0.000000D+00  0.000000D+00  0.000000D+00  0.100000D+01
     10  0.000000D+00  0.000000D+00  0.000000D+00  0.000000D+00  0.100000D+01
     11  0.000000D+00  0.000000D+00  0.000000D+00  0.000000D+00  0.000000D+00
     12  0.000000D+00  0.000000D+00  0.000000D+00  0.000000D+00  0.000000D+00
               11            12 
     11  0.100000D+01
     12  0.000000D+00  0.100000D+01
 Leave Link  716 at Tue Aug  8 11:07:10 2023, MaxMem=  1610612736 cpu:               0.4 elap:               0.0
 (Enter /home/sekinelabo/g16/l103.exe)

 GradGradGradGradGradGradGradGradGradGradGradGradGradGradGradGradGradGrad
 Berny optimization.
 Search for a local minimum.
 Step number   1 out of a maximum of    2
 All quantities printed in internal units (Hartrees-Bohrs-Radians)
 Second derivative matrix not updated -- first step.
 The second derivative matrix:
                          X1        Y1        Z1        X2        Y2
           X1           1.00000
           Y1          -0.00000   1.00000
           Z1           0.00000  -0.00000   1.00000
           X2           0.00000   0.00000   0.00000   1.00000
           Y2           0.00000   0.00000   0.00000  -0.00000   1.00000
           Z2           0.00000   0.00000   0.00000   0.00000  -0.00000
           X3           0.00000   0.00000   0.00000   0.00000   0.00000
           Y3           0.00000   0.00000   0.00000   0.00000   0.00000
           Z3           0.00000   0.00000   0.00000   0.00000   0.00000
           X4           0.00000   0.00000   0.00000   0.00000   0.00000
           Y4           0.00000   0.00000   0.00000   0.00000   0.00000
           Z4           0.00000   0.00000   0.00000   0.00000   0.00000
                          Z2        X3        Y3        Z3        X4
           Z2           1.00000
           X3           0.00000   1.00000
           Y3           0.00000  -0.00000   1.00000
           Z3           0.00000   0.00000  -0.00000   1.00000
           X4           0.00000   0.00000   0.00000   0.00000   1.00000
           Y4           0.00000   0.00000   0.00000   0.00000  -0.00000
           Z4           0.00000   0.00000   0.00000   0.00000   0.00000
                          Y4        Z4
           Y4           1.00000
           Z4          -0.00000   1.00000
 ITU=  0
     Eigenvalues ---    1.00000   1.00000   1.00000   1.00000   1.00000
     Eigenvalues ---    1.00000   1.00000   1.00000   1.00000   1.00000
     Eigenvalues ---    1.00000   1.00000
 Angle between quadratic step and forces=   0.00 degrees.
 Linear search not attempted -- first point.
 B after Tr=    -0.000000    0.000000    0.000000
         Rot=    1.000000   -0.000000   -0.000000    0.000000 Ang=   0.00 deg.
 Variable       Old X    -DE/DX   Delta X   Delta X   Delta X     New X
                                 (Linear)    (Quad)   (Total)
    X1        0.00000  -0.00449   0.00000  -0.00449  -0.00449  -0.00449
    Y1        0.00000   0.00000   0.00000   0.00000   0.00000   0.00000
    Z1        0.00000   0.00316   0.00000   0.00316   0.00316   0.00316
    X2       -9.42710   0.00501   0.00000   0.00501   0.00501  -9.42209
    Y2        0.00000   0.00000   0.00000   0.00000   0.00000   0.00000
    Z2        4.99573  -0.00209   0.00000  -0.00209  -0.00209   4.99364
    X3        0.00000  -0.00051   0.00000  -0.00051  -0.00051  -0.00051
    Y3        0.00000  -0.00032   0.00000  -0.00032  -0.00032  -0.00032
    Z3       10.93425   0.00606   0.00000   0.00606   0.00606  10.94031
    X4        0.07464  -0.00001   0.00000  -0.00001  -0.00001   0.07463
    Y4       -0.39798   0.00032   0.00000   0.00032   0.00032  -0.39766
    Z4       19.99389  -0.00713   0.00000  -0.00713  -0.00713  19.98676
         Item               Value     Threshold  Converged?
 Maximum Force            0.007130     0.000450     NO 
 RMS     Force            0.003508     0.000300     NO 
 Maximum Displacement     0.007130     0.001800     NO 
 RMS     Displacement     0.003508     0.001200     NO 
 Predicted change in Energy=-7.382045D-05
 GradGradGradGradGradGradGradGradGradGradGradGradGradGradGradGradGradGrad

 Leave Link  103 at Tue Aug  8 11:07:10 2023, MaxMem=  1610612736 cpu:               0.1 elap:               0.0
 (Enter /home/sekinelabo/g16/l9999.exe)
 1\1\GINC-SEKINELABO-XA7R-R37\Force\RB3LYP\6-311+G(d)\Na4\SEKINELABO\08
 -Aug-2023\0\\#p B3LYP/6-311+g(d) force\\Test\\0,1\Na,0.,0.,0.\Na,-4.98
 86073632,0.,2.643628213\Na,0.,0.,5.7861562932\Na,0.0394985387,-0.21060
 01898,10.5803112831\\Version=ES64L-G16RevB.01\State=1-A\HF=-649.148661
 6\RMSD=5.151e-09\RMSF=3.508e-03\Dipole=-0.4667692,0.0146288,-1.0233528
 \Quadrupole=3.8992809,-6.6937807,2.7944998,0.0108349,-4.8643068,-0.284
 2501\PG=C01 [X(Na4)]\\@


 YOU SHOULDN'T LET PEOPLE DRIVE YOU CRAZY
 WHEN YOU KNOW IT'S WITHIN WALKING DISTANCE.
 Job cpu time:       0 days  0 hours  0 minutes 38.3 seconds.
 Elapsed time:       0 days  0 hours  0 minutes  2.7 seconds.
 File lengths (MBytes):  RWF=     10 Int=      0 D2E=      0 Chk=      2 Scr=      1
 Normal termination of Gaussian 16 at Tue Aug  8 11:07:10 2023.
