 Initial command:
 /home/sekinelabo/g16/l1.exe "/home/sekinelabo/g16temp/Gau-20140.inp" -scrdir="/home/sekinelabo/g16temp/"
 Entering Link 1 = /home/sekinelabo/g16/l1.exe PID=     22320.
  
 Copyright (c) 1988-2017, Gaussian, Inc.  All Rights Reserved.
  
 This is part of the Gaussian(R) 16 program.  It is based on
 the Gaussian(R) 09 system (copyright 2009, Gaussian, Inc.),
 the Gaussian(R) 03 system (copyright 2003, Gaussian, Inc.),
 the Gaussian(R) 98 system (copyright 1998, Gaussian, Inc.),
 the Gaussian(R) 94 system (copyright 1995, Gaussian, Inc.),
 the Gaussian 92(TM) system (copyright 1992, Gaussian, Inc.),
 the Gaussian 90(TM) system (copyright 1990, Gaussian, Inc.),
 the Gaussian 88(TM) system (copyright 1988, Gaussian, Inc.),
 the Gaussian 86(TM) system (copyright 1986, Carnegie Mellon
 University), and the Gaussian 82(TM) system (copyright 1983,
 Carnegie Mellon University). Gaussian is a federally registered
 trademark of Gaussian, Inc.
  
 This software contains proprietary and confidential information,
 including trade secrets, belonging to Gaussian, Inc.
  
 This software is provided under written license and may be
 used, copied, transmitted, or stored only in accord with that
 written license.
  
 The following legend is applicable only to US Government
 contracts under FAR:
  
                    RESTRICTED RIGHTS LEGEND
  
 Use, reproduction and disclosure by the US Government is
 subject to restrictions as set forth in subparagraphs (a)
 and (c) of the Commercial Computer Software - Restricted
 Rights clause in FAR 52.227-19.
  
 Gaussian, Inc.
 340 Quinnipiac St., Bldg. 40, Wallingford CT 06492
  
  
 ---------------------------------------------------------------
 Warning -- This program may not be used in any manner that
 competes with the business of Gaussian, Inc. or will provide
 assistance to any competitor of Gaussian, Inc.  The licensee
 of this program is prohibited from giving any competitor of
 Gaussian, Inc. access to this program.  By using this program,
 the user acknowledges that Gaussian, Inc. is engaged in the
 business of creating and licensing software in the field of
 computational chemistry and represents and warrants to the
 licensee that it is not a competitor of Gaussian, Inc. and that
 it will not use this program in any manner prohibited above.
 ---------------------------------------------------------------
  

 Cite this work as:
 Gaussian 16, Revision B.01,
 M. J. Frisch, G. W. Trucks, H. B. Schlegel, G. E. Scuseria, 
 M. A. Robb, J. R. Cheeseman, G. Scalmani, V. Barone, 
 G. A. Petersson, H. Nakatsuji, X. Li, M. Caricato, A. V. Marenich, 
 J. Bloino, B. G. Janesko, R. Gomperts, B. Mennucci, H. P. Hratchian, 
 J. V. Ortiz, A. F. Izmaylov, J. L. Sonnenberg, D. Williams-Young, 
 F. Ding, F. Lipparini, F. Egidi, J. Goings, B. Peng, A. Petrone, 
 T. Henderson, D. Ranasinghe, V. G. Zakrzewski, J. Gao, N. Rega, 
 G. Zheng, W. Liang, M. Hada, M. Ehara, K. Toyota, R. Fukuda, 
 J. Hasegawa, M. Ishida, T. Nakajima, Y. Honda, O. Kitao, H. Nakai, 
 T. Vreven, K. Throssell, J. A. Montgomery, Jr., J. E. Peralta, 
 F. Ogliaro, M. J. Bearpark, J. J. Heyd, E. N. Brothers, K. N. Kudin, 
 V. N. Staroverov, T. A. Keith, R. Kobayashi, J. Normand, 
 K. Raghavachari, A. P. Rendell, J. C. Burant, S. S. Iyengar, 
 J. Tomasi, M. Cossi, J. M. Millam, M. Klene, C. Adamo, R. Cammi, 
 J. W. Ochterski, R. L. Martin, K. Morokuma, O. Farkas, 
 J. B. Foresman, and D. J. Fox, Gaussian, Inc., Wallingford CT, 2016.
 
 ******************************************
 Gaussian 16:  ES64L-G16RevB.01 20-Dec-2017
                23-Aug-2023 
 ******************************************
 %NProcShared=16
 Will use up to   16 processors via shared memory.
 %mem=12GB
 %Chk=checkpoint.chk
 -------------------------
 #p B3LYP/6-311+g(d) force
 -------------------------
 1/10=7,30=1,38=1/1,3;
 2/12=2,17=6,18=5,40=1/2;
 3/5=4,6=6,7=11,11=2,25=1,30=1,71=1,74=-5/1,2,3;
 4//1;
 5/5=2,38=5/2;
 6/7=2,8=2,9=2,10=2,28=1/1;
 7/29=1/1,2,3,16;
 1/10=7,30=1/3;
 99//99;
 Leave Link    1 at Wed Aug 23 10:08:02 2023, MaxMem=  1610612736 cpu:               0.2 elap:               0.0
 (Enter /home/sekinelabo/g16/l101.exe)


 Symbolic Z-matrix:
 Charge =  0 Multiplicity = 1
 Na                    0.        0.        0. 
 Na                   -2.99874   0.       -2.892 
 Na                    0.        0.        3.18552 
 Na                   -1.96155  -3.8793    5.43928 
 
 ITRead=  0  0  0  0
 MicOpt= -1 -1 -1 -1
 NAtoms=      4 NQM=        4 NQMF=       0 NMMI=      0 NMMIF=      0
                NMic=       0 NMicF=      0.
                    Isotopes and Nuclear Properties:
 (Nuclear quadrupole moments (NQMom) in fm**2, nuclear magnetic moments (NMagM)
  in nuclear magnetons)

  Atom         1           2           3           4
 IAtWgt=          23          23          23          23
 AtmWgt=  22.9897697  22.9897697  22.9897697  22.9897697
 NucSpn=           3           3           3           3
 AtZEff=  -0.0000000  -0.0000000  -0.0000000  -0.0000000
 NQMom=   10.4000000  10.4000000  10.4000000  10.4000000
 NMagM=    2.2175200   2.2175200   2.2175200   2.2175200
 AtZNuc=  11.0000000  11.0000000  11.0000000  11.0000000
 Leave Link  101 at Wed Aug 23 10:08:02 2023, MaxMem=  1610612736 cpu:               1.6 elap:               0.1
 (Enter /home/sekinelabo/g16/l103.exe)

 GradGradGradGradGradGradGradGradGradGradGradGradGradGradGradGradGradGrad
 Berny optimization.
 Initialization pass.
 Trust Radius=3.00D-01 FncErr=1.00D-07 GrdErr=1.00D-07 EigMax=2.50D+02 EigMin=1.00D-04
 Number of steps in this run=      2 maximum allowed number of steps=      2.
 GradGradGradGradGradGradGradGradGradGradGradGradGradGradGradGradGradGrad

 Leave Link  103 at Wed Aug 23 10:08:02 2023, MaxMem=  1610612736 cpu:               0.1 elap:               0.0
 (Enter /home/sekinelabo/g16/l202.exe)
                          Input orientation:                          
 ---------------------------------------------------------------------
 Center     Atomic      Atomic             Coordinates (Angstroms)
 Number     Number       Type             X           Y           Z
 ---------------------------------------------------------------------
      1         11           0        0.000000    0.000000    0.000000
      2         11           0       -2.998743    0.000000   -2.892000
      3         11           0        0.000000    0.000000    3.185517
      4         11           0       -1.961554   -3.879301    5.439280
 ---------------------------------------------------------------------
                    Distance matrix (angstroms):
                    1          2          3          4
     1  Na   0.000000
     2  Na   4.166069   0.000000
     3  Na   3.185517   6.777070   0.000000
     4  Na   6.962933   9.248512   4.896541   0.000000
 Stoichiometry    Na4
 Framework group  C1[X(Na4)]
 Deg. of freedom     6
 Full point group                 C1      NOp   1
 Largest Abelian subgroup         C1      NOp   1
 Largest concise Abelian subgroup C1      NOp   1
                         Standard orientation:                         
 ---------------------------------------------------------------------
 Center     Atomic      Atomic             Coordinates (Angstroms)
 Number     Number       Type             X           Y           Z
 ---------------------------------------------------------------------
      1         11           0        1.581986    1.282236    0.620964
      2         11           0        4.497508   -1.567732   -0.235507
      3         11           0       -1.335676    1.871033   -0.513975
      4         11           0       -4.743819   -1.585537    0.128518
 ---------------------------------------------------------------------
 Rotational constants (GHZ):           2.0282404           0.4604701           0.3847534
 Leave Link  202 at Wed Aug 23 10:08:02 2023, MaxMem=  1610612736 cpu:               0.0 elap:               0.0
 (Enter /home/sekinelabo/g16/l301.exe)
 Standard basis: 6-311+G(d) (5D, 7F)
 Ernie: Thresh=  0.10000D-02 Tol=  0.10000D-05 Strict=F.
 There are   124 symmetry adapted cartesian basis functions of A   symmetry.
 There are   120 symmetry adapted basis functions of A   symmetry.
   120 basis functions,   200 primitive gaussians,   124 cartesian basis functions
    22 alpha electrons       22 beta electrons
       nuclear repulsion energy        74.1139914324 Hartrees.
 IExCor=  402 DFT=T Ex+Corr=B3LYP ExCW=0 ScaHFX=  0.200000
 ScaDFX=  0.800000  0.720000  1.000000  0.810000 ScalE2=  1.000000  1.000000
 IRadAn=      5 IRanWt=     -1 IRanGd=            0 ICorTp=0 IEmpDi=  4
 NAtoms=    4 NActive=    4 NUniq=    4 SFac= 1.00D+00 NAtFMM=   60 NAOKFM=F Big=F
 Integral buffers will be    131072 words long.
 Raffenetti 2 integral format.
 Two-electron integral symmetry is turned on.
 Leave Link  301 at Wed Aug 23 10:08:02 2023, MaxMem=  1610612736 cpu:               0.3 elap:               0.0
 (Enter /home/sekinelabo/g16/l302.exe)
 NPDir=0 NMtPBC=     1 NCelOv=     1 NCel=       1 NClECP=     1 NCelD=      1
         NCelK=      1 NCelE2=     1 NClLst=     1 CellRange=     0.0.
 One-electron integrals computed using PRISM.
 One-electron integral symmetry used in STVInt
 NBasis=   120 RedAO= T EigKep=  9.57D-05  NBF=   120
 NBsUse=   120 1.00D-06 EigRej= -1.00D+00 NBFU=   120
 Precomputing XC quadrature grid using
 IXCGrd= 4 IRadAn=           5 IRanWt=          -1 IRanGd=           0 AccXCQ= 0.00D+00.
 Generated NRdTot=       0 NPtTot=           0 NUsed=           0 NTot=          32
 NSgBfM=   112   112   112   112   112 MxSgAt=     4 MxSgA2=     4.
 Leave Link  302 at Wed Aug 23 10:08:02 2023, MaxMem=  1610612736 cpu:               1.3 elap:               0.1
 (Enter /home/sekinelabo/g16/l303.exe)
 DipDrv:  MaxL=1.
 Leave Link  303 at Wed Aug 23 10:08:02 2023, MaxMem=  1610612736 cpu:               0.3 elap:               0.0
 (Enter /home/sekinelabo/g16/l401.exe)
 ExpMin= 7.60D-03 ExpMax= 3.62D+04 ExpMxC= 1.21D+03 IAcc=3 IRadAn=         5 AccDes= 0.00D+00
 Harris functional with IExCor=  402 and IRadAn=       5 diagonalized for initial guess.
 HarFok:  IExCor=  402 AccDes= 0.00D+00 IRadAn=         5 IDoV= 1 UseB2=F ITyADJ=14
 ICtDFT=  3500011 ScaDFX=  1.000000  1.000000  1.000000  1.000000
 FoFCou: FMM=F IPFlag=           0 FMFlag=      100000 FMFlg1=           0
         NFxFlg=           0 DoJE=T BraDBF=F KetDBF=T FulRan=T
         wScrn=  0.000000 ICntrl=       500 IOpCl=  0 I1Cent=   200000004 NGrid=           0
         NMat0=    1 NMatS0=      1 NMatT0=    0 NMatD0=    1 NMtDS0=    0 NMtDT0=    0
 Petite list used in FoFCou.
 Harris En= -649.050455692071    
 JPrj=0 DoOrth=F DoCkMO=F.
 Leave Link  401 at Wed Aug 23 10:08:02 2023, MaxMem=  1610612736 cpu:               2.0 elap:               0.1
 (Enter /home/sekinelabo/g16/l502.exe)
 Keep R1 ints in memory in canonical form, NReq=41581754.
 FoFCou: FMM=F IPFlag=           0 FMFlag=           0 FMFlg1=           0
         NFxFlg=           0 DoJE=F BraDBF=F KetDBF=F FulRan=T
         wScrn=  0.000000 ICntrl=       600 IOpCl=  0 I1Cent=           0 NGrid=           0
         NMat0=    1 NMatS0=   7260 NMatT0=    0 NMatD0=    1 NMtDS0=    0 NMtDT0=    0
 Symmetry not used in FoFCou.
 Two-electron integral symmetry not used.
 Closed shell SCF:
 Using DIIS extrapolation, IDIIS=  1040.
 NGot=  1610612736 LenX=  1584221388 LenY=  1584205571
 Requested convergence on RMS density matrix=1.00D-08 within 128 cycles.
 Requested convergence on MAX density matrix=1.00D-06.
 Requested convergence on             energy=1.00D-06.
 No special actions if energy rises.

 Cycle   1  Pass 1  IDiag  1:
 E= -649.153681821947    
 DIIS: error= 1.20D-02 at cycle   1 NSaved=   1.
 NSaved= 1 IEnMin= 1 EnMin= -649.153681821947     IErMin= 1 ErrMin= 1.20D-02
 ErrMax= 1.20D-02  0.00D+00 EMaxC= 1.00D-01 BMatC= 2.73D-02 BMatP= 2.73D-02
 IDIUse=3 WtCom= 8.80D-01 WtEn= 1.20D-01
 Coeff-Com:  0.100D+01
 Coeff-En:   0.100D+01
 Coeff:      0.100D+01
 Gap=     0.011 Goal=   None    Shift=    0.000
 GapD=    0.011 DampG=0.250 DampE=0.500 DampFc=0.2500 IDamp=-1.
 Damping current iteration by 2.50D-01
 RMSDP=7.25D-03 MaxDP=4.60D-01              OVMax= 5.65D-01

 Cycle   2  Pass 1  IDiag  1:
 E= -649.160419893024     Delta-E=       -0.006738071076 Rises=F Damp=T
 DIIS: error= 8.13D-03 at cycle   2 NSaved=   2.
 NSaved= 2 IEnMin= 2 EnMin= -649.160419893024     IErMin= 2 ErrMin= 8.13D-03
 ErrMax= 8.13D-03  0.00D+00 EMaxC= 1.00D-01 BMatC= 1.02D-02 BMatP= 2.73D-02
 IDIUse=3 WtCom= 9.19D-01 WtEn= 8.13D-02
 Coeff-Com: -0.100D+01 0.200D+01
 Coeff-En:   0.133D+00 0.867D+00
 Coeff:     -0.909D+00 0.191D+01
 Gap=     0.025 Goal=   None    Shift=    0.000
 RMSDP=6.13D-03 MaxDP=3.38D-01 DE=-6.74D-03 OVMax= 8.48D-01

 Cycle   3  Pass 1  IDiag  1:
 E= -649.051354274509     Delta-E=        0.109065618515 Rises=F Damp=F
 DIIS: error= 8.75D-03 at cycle   3 NSaved=   3.
 NSaved= 3 IEnMin= 2 EnMin= -649.160419893024     IErMin= 2 ErrMin= 8.13D-03
 ErrMax= 8.75D-03  0.00D+00 EMaxC= 1.00D-01 BMatC= 9.24D-03 BMatP= 1.02D-02
 IDIUse=3 WtCom= 9.13D-01 WtEn= 8.75D-02
 Rare condition: small coef for last iteration:  0.000D+00
 Coeff-Com: -0.695D+00 0.132D+01 0.375D+00
 Coeff-En:   0.120D+00 0.875D+00 0.488D-02
 Coeff:     -0.695D+00 0.132D+01 0.375D+00
 Gap=     0.015 Goal=   None    Shift=    0.000
 RMSDP=8.75D-03 MaxDP=5.18D-01 DE= 1.09D-01 OVMax= 8.40D-01

 Cycle   4  Pass 1  IDiag  1:
 E= -649.092593141683     Delta-E=       -0.041238867174 Rises=F Damp=F
 DIIS: error= 1.09D-02 at cycle   4 NSaved=   4.
 NSaved= 4 IEnMin= 2 EnMin= -649.160419893024     IErMin= 2 ErrMin= 8.13D-03
 ErrMax= 1.09D-02  0.00D+00 EMaxC= 1.00D-01 BMatC= 7.18D-03 BMatP= 9.24D-03
 IDIUse=3 WtCom= 8.91D-01 WtEn= 1.09D-01
 EnCoef did   100 forward-backward iterations
 Coeff-Com: -0.277D+00 0.598D+00 0.375D+00 0.304D+00
 Coeff-En:   0.257D+00 0.691D+00 0.153D-02 0.510D-01
 Coeff:     -0.219D+00 0.608D+00 0.335D+00 0.276D+00
 Gap=     0.015 Goal=   None    Shift=    0.000
 RMSDP=3.78D-03 MaxDP=2.17D-01 DE=-4.12D-02 OVMax= 4.03D-01

 Cycle   5  Pass 1  IDiag  1:
 E= -649.172083982894     Delta-E=       -0.079490841211 Rises=F Damp=F
 DIIS: error= 2.65D-03 at cycle   5 NSaved=   5.
 NSaved= 5 IEnMin= 5 EnMin= -649.172083982894     IErMin= 5 ErrMin= 2.65D-03
 ErrMax= 2.65D-03  0.00D+00 EMaxC= 1.00D-01 BMatC= 4.80D-04 BMatP= 7.18D-03
 IDIUse=3 WtCom= 9.73D-01 WtEn= 2.65D-02
 EnCoef did    12 forward-backward iterations
 Coeff-Com:  0.246D+00-0.320D+00 0.623D-01-0.636D-01 0.107D+01
 Coeff-En:   0.116D-01 0.000D+00 0.259D-01 0.000D+00 0.963D+00
 Coeff:      0.240D+00-0.311D+00 0.614D-01-0.619D-01 0.107D+01
 Gap=     0.024 Goal=   None    Shift=    0.000
 RMSDP=9.45D-04 MaxDP=2.65D-02 DE=-7.95D-02 OVMax= 4.26D-02

 Cycle   6  Pass 1  IDiag  1:
 E= -649.171203316780     Delta-E=        0.000880666115 Rises=F Damp=F
 DIIS: error= 3.59D-03 at cycle   6 NSaved=   6.
 NSaved= 6 IEnMin= 5 EnMin= -649.172083982894     IErMin= 5 ErrMin= 2.65D-03
 ErrMax= 3.59D-03  0.00D+00 EMaxC= 1.00D-01 BMatC= 4.46D-04 BMatP= 4.80D-04
 IDIUse=3 WtCom= 9.73D-01 WtEn= 2.65D-02
 Rare condition: small coef for last iteration: -0.666D-15
 Coeff-Com:  0.187D+00-0.254D+00 0.439D-01-0.137D+00 0.585D+00 0.575D+00
 Coeff-En:   0.000D+00 0.000D+00 0.530D-01 0.000D+00 0.000D+00 0.947D+00
 Coeff:      0.187D+00-0.254D+00 0.439D-01-0.137D+00 0.585D+00 0.575D+00
 Gap=     0.025 Goal=   None    Shift=    0.000
 RMSDP=3.92D-04 MaxDP=1.35D-02 DE= 8.81D-04 OVMax= 4.01D-02

 Cycle   7  Pass 1  IDiag  1:
 E= -649.171640206147     Delta-E=       -0.000436889367 Rises=F Damp=F
 DIIS: error= 3.13D-03 at cycle   7 NSaved=   7.
 NSaved= 7 IEnMin= 5 EnMin= -649.172083982894     IErMin= 5 ErrMin= 2.65D-03
 ErrMax= 3.13D-03  0.00D+00 EMaxC= 1.00D-01 BMatC= 3.87D-04 BMatP= 4.46D-04
 IDIUse=3 WtCom= 9.73D-01 WtEn= 2.65D-02
 EnCoef did   100 forward-backward iterations
 Coeff-Com:  0.179D+00-0.246D+00 0.465D-01-0.137D+00 0.492D+00 0.459D+00
 Coeff-Com:  0.205D+00
 Coeff-En:   0.115D-01 0.000D+00 0.261D-01 0.000D+00 0.954D+00 0.000D+00
 Coeff-En:   0.842D-02
 Coeff:      0.175D+00-0.239D+00 0.460D-01-0.133D+00 0.504D+00 0.447D+00
 Coeff:      0.200D+00
 Gap=     0.025 Goal=   None    Shift=    0.000
 RMSDP=1.61D-04 MaxDP=1.06D-02 DE=-4.37D-04 OVMax= 1.54D-02

 Cycle   8  Pass 1  IDiag  1:
 E= -649.172571019291     Delta-E=       -0.000930813144 Rises=F Damp=F
 DIIS: error= 2.79D-03 at cycle   8 NSaved=   8.
 NSaved= 8 IEnMin= 8 EnMin= -649.172571019291     IErMin= 5 ErrMin= 2.65D-03
 ErrMax= 2.79D-03  0.00D+00 EMaxC= 1.00D-01 BMatC= 2.80D-04 BMatP= 3.87D-04
 IDIUse=3 WtCom= 9.73D-01 WtEn= 2.65D-02
 Coeff-Com:  0.114D-01-0.160D-01 0.351D-01-0.125D-01-0.155D+00-0.111D+01
 Coeff-Com: -0.320D+01 0.545D+01
 Coeff-En:   0.000D+00 0.000D+00 0.233D-01 0.000D+00 0.000D+00 0.000D+00
 Coeff-En:   0.000D+00 0.977D+00
 Coeff:      0.111D-01-0.156D-01 0.348D-01-0.121D-01-0.151D+00-0.108D+01
 Coeff:     -0.312D+01 0.533D+01
 Gap=     0.024 Goal=   None    Shift=    0.000
 RMSDP=3.56D-04 MaxDP=1.94D-02 DE=-9.31D-04 OVMax= 3.70D-02

 Cycle   9  Pass 1  IDiag  1:
 E= -649.174255536902     Delta-E=       -0.001684517611 Rises=F Damp=F
 DIIS: error= 1.47D-03 at cycle   9 NSaved=   9.
 NSaved= 9 IEnMin= 9 EnMin= -649.174255536902     IErMin= 9 ErrMin= 1.47D-03
 ErrMax= 1.47D-03  0.00D+00 EMaxC= 1.00D-01 BMatC= 8.30D-05 BMatP= 2.80D-04
 IDIUse=3 WtCom= 9.85D-01 WtEn= 1.47D-02
 Coeff-Com: -0.279D-01 0.369D-01 0.209D-01 0.278D-01-0.218D+00-0.103D+01
 Coeff-Com: -0.271D+01 0.408D+01 0.823D+00
 Coeff-En:   0.000D+00 0.000D+00 0.000D+00 0.000D+00 0.000D+00 0.000D+00
 Coeff-En:   0.000D+00 0.000D+00 0.100D+01
 Coeff:     -0.275D-01 0.364D-01 0.206D-01 0.274D-01-0.215D+00-0.102D+01
 Coeff:     -0.267D+01 0.402D+01 0.826D+00
 Gap=     0.024 Goal=   None    Shift=    0.000
 RMSDP=3.70D-04 MaxDP=2.16D-02 DE=-1.68D-03 OVMax= 4.17D-02

 Cycle  10  Pass 1  IDiag  1:
 E= -649.174980333659     Delta-E=       -0.000724796757 Rises=F Damp=F
 DIIS: error= 1.75D-04 at cycle  10 NSaved=  10.
 NSaved=10 IEnMin=10 EnMin= -649.174980333659     IErMin=10 ErrMin= 1.75D-04
 ErrMax= 1.75D-04  0.00D+00 EMaxC= 1.00D-01 BMatC= 1.27D-06 BMatP= 8.30D-05
 IDIUse=3 WtCom= 9.98D-01 WtEn= 1.75D-03
 Coeff-Com: -0.693D-02 0.911D-02 0.325D-02 0.128D-01-0.315D-01-0.214D+00
 Coeff-Com: -0.475D+00 0.605D+00 0.248D+00 0.849D+00
 Coeff-En:   0.000D+00 0.000D+00 0.000D+00 0.000D+00 0.000D+00 0.000D+00
 Coeff-En:   0.000D+00 0.000D+00 0.000D+00 0.100D+01
 Coeff:     -0.692D-02 0.910D-02 0.324D-02 0.128D-01-0.315D-01-0.213D+00
 Coeff:     -0.474D+00 0.604D+00 0.247D+00 0.849D+00
 Gap=     0.024 Goal=   None    Shift=    0.000
 RMSDP=1.00D-04 MaxDP=5.60D-03 DE=-7.25D-04 OVMax= 1.14D-02

 Cycle  11  Pass 1  IDiag  1:
 E= -649.174976136625     Delta-E=        0.000004197034 Rises=F Damp=F
 DIIS: error= 2.02D-04 at cycle  11 NSaved=  11.
 NSaved=11 IEnMin=10 EnMin= -649.174980333659     IErMin=10 ErrMin= 1.75D-04
 ErrMax= 2.02D-04  0.00D+00 EMaxC= 1.00D-01 BMatC= 1.50D-06 BMatP= 1.27D-06
 IDIUse=3 WtCom= 9.98D-01 WtEn= 1.75D-03
 Coeff-Com:  0.322D-02-0.434D-02 0.793D-04 0.826D-04 0.142D-01-0.434D-02
 Coeff-Com: -0.205D-01 0.221D-01 0.736D-01 0.208D+00 0.708D+00
 Coeff-En:   0.000D+00 0.000D+00 0.000D+00 0.000D+00 0.000D+00 0.000D+00
 Coeff-En:   0.000D+00 0.000D+00 0.000D+00 0.558D+00 0.442D+00
 Coeff:      0.322D-02-0.433D-02 0.792D-04 0.825D-04 0.142D-01-0.433D-02
 Coeff:     -0.205D-01 0.221D-01 0.734D-01 0.208D+00 0.708D+00
 Gap=     0.024 Goal=   None    Shift=    0.000
 RMSDP=6.19D-05 MaxDP=3.35D-03 DE= 4.20D-06 OVMax= 6.80D-03

 Cycle  12  Pass 1  IDiag  1:
 E= -649.174989983319     Delta-E=       -0.000013846693 Rises=F Damp=F
 DIIS: error= 1.33D-05 at cycle  12 NSaved=  12.
 NSaved=12 IEnMin=12 EnMin= -649.174989983319     IErMin=12 ErrMin= 1.33D-05
 ErrMax= 1.33D-05  0.00D+00 EMaxC= 1.00D-01 BMatC= 8.14D-09 BMatP= 1.27D-06
 IDIUse=1 WtCom= 1.00D+00 WtEn= 0.00D+00
 Coeff-Com:  0.100D-02-0.135D-02-0.108D-03 0.555D-04 0.468D-02 0.567D-02
 Coeff-Com:  0.113D-01-0.206D-01-0.413D-02 0.202D-01 0.796D-01 0.904D+00
 Coeff:      0.100D-02-0.135D-02-0.108D-03 0.555D-04 0.468D-02 0.567D-02
 Coeff:      0.113D-01-0.206D-01-0.413D-02 0.202D-01 0.796D-01 0.904D+00
 Gap=     0.024 Goal=   None    Shift=    0.000
 RMSDP=6.59D-06 MaxDP=3.51D-04 DE=-1.38D-05 OVMax= 6.45D-04

 Cycle  13  Pass 1  IDiag  1:
 E= -649.174990042961     Delta-E=       -0.000000059642 Rises=F Damp=F
 DIIS: error= 5.93D-06 at cycle  13 NSaved=  13.
 NSaved=13 IEnMin=13 EnMin= -649.174990042961     IErMin=13 ErrMin= 5.93D-06
 ErrMax= 5.93D-06  0.00D+00 EMaxC= 1.00D-01 BMatC= 1.82D-09 BMatP= 8.14D-09
 IDIUse=1 WtCom= 1.00D+00 WtEn= 0.00D+00
 Coeff-Com:  0.190D-03-0.260D-03-0.224D-05 0.872D-06 0.948D-03-0.745D-05
 Coeff-Com:  0.141D-02-0.201D-02-0.827D-03-0.562D-02-0.283D-01 0.122D+00
 Coeff-Com:  0.912D+00
 Coeff:      0.190D-03-0.260D-03-0.224D-05 0.872D-06 0.948D-03-0.745D-05
 Coeff:      0.141D-02-0.201D-02-0.827D-03-0.562D-02-0.283D-01 0.122D+00
 Coeff:      0.912D+00
 Gap=     0.024 Goal=   None    Shift=    0.000
 RMSDP=2.52D-06 MaxDP=1.19D-04 DE=-5.96D-08 OVMax= 2.33D-04

 Cycle  14  Pass 1  IDiag  1:
 E= -649.174990058593     Delta-E=       -0.000000015632 Rises=F Damp=F
 DIIS: error= 6.41D-07 at cycle  14 NSaved=  14.
 NSaved=14 IEnMin=14 EnMin= -649.174990058593     IErMin=14 ErrMin= 6.41D-07
 ErrMax= 6.41D-07  0.00D+00 EMaxC= 1.00D-01 BMatC= 2.82D-11 BMatP= 1.82D-09
 IDIUse=1 WtCom= 1.00D+00 WtEn= 0.00D+00
 Coeff-Com: -0.288D-04 0.384D-04 0.545D-05 0.346D-04-0.682D-04-0.695D-03
 Coeff-Com: -0.198D-02 0.238D-02 0.555D-03-0.193D-02-0.129D-01-0.278D-01
 Coeff-Com:  0.227D+00 0.816D+00
 Coeff:     -0.288D-04 0.384D-04 0.545D-05 0.346D-04-0.682D-04-0.695D-03
 Coeff:     -0.198D-02 0.238D-02 0.555D-03-0.193D-02-0.129D-01-0.278D-01
 Coeff:      0.227D+00 0.816D+00
 Gap=     0.024 Goal=   None    Shift=    0.000
 RMSDP=5.41D-07 MaxDP=2.63D-05 DE=-1.56D-08 OVMax= 3.85D-05

 Cycle  15  Pass 1  IDiag  1:
 E= -649.174990058691     Delta-E=       -0.000000000098 Rises=F Damp=F
 DIIS: error= 6.22D-07 at cycle  15 NSaved=  15.
 NSaved=15 IEnMin=15 EnMin= -649.174990058691     IErMin=15 ErrMin= 6.22D-07
 ErrMax= 6.22D-07  0.00D+00 EMaxC= 1.00D-01 BMatC= 1.57D-11 BMatP= 2.82D-11
 IDIUse=1 WtCom= 1.00D+00 WtEn= 0.00D+00
 Coeff-Com: -0.435D-05 0.550D-05-0.457D-06 0.284D-06-0.259D-04-0.947D-04
 Coeff-Com: -0.313D-03 0.479D-03 0.166D-03-0.604D-04-0.140D-02-0.137D-01
 Coeff-Com: -0.753D-02 0.250D+00 0.773D+00
 Coeff:     -0.435D-05 0.550D-05-0.457D-06 0.284D-06-0.259D-04-0.947D-04
 Coeff:     -0.313D-03 0.479D-03 0.166D-03-0.604D-04-0.140D-02-0.137D-01
 Coeff:     -0.753D-02 0.250D+00 0.773D+00
 Gap=     0.024 Goal=   None    Shift=    0.000
 RMSDP=1.76D-07 MaxDP=9.41D-06 DE=-9.83D-11 OVMax= 1.93D-05

 Cycle  16  Pass 1  IDiag  1:
 E= -649.174990058835     Delta-E=       -0.000000000144 Rises=F Damp=F
 DIIS: error= 1.72D-08 at cycle  16 NSaved=  16.
 NSaved=16 IEnMin=16 EnMin= -649.174990058835     IErMin=16 ErrMin= 1.72D-08
 ErrMax= 1.72D-08  0.00D+00 EMaxC= 1.00D-01 BMatC= 4.32D-14 BMatP= 1.57D-11
 IDIUse=1 WtCom= 1.00D+00 WtEn= 0.00D+00
 Coeff-Com: -0.900D-06 0.118D-05-0.514D-06-0.317D-06-0.756D-05 0.441D-05
 Coeff-Com: -0.709D-05 0.277D-04-0.512D-05 0.151D-03 0.379D-03 0.707D-03
 Coeff-Com: -0.131D-01-0.839D-02 0.101D+00 0.919D+00
 Coeff:     -0.900D-06 0.118D-05-0.514D-06-0.317D-06-0.756D-05 0.441D-05
 Coeff:     -0.709D-05 0.277D-04-0.512D-05 0.151D-03 0.379D-03 0.707D-03
 Coeff:     -0.131D-01-0.839D-02 0.101D+00 0.919D+00
 Gap=     0.024 Goal=   None    Shift=    0.000
 RMSDP=1.70D-08 MaxDP=4.58D-07 DE=-1.44D-10 OVMax= 6.56D-07

 Cycle  17  Pass 1  IDiag  1:
 E= -649.174990058836     Delta-E=       -0.000000000001 Rises=F Damp=F
 DIIS: error= 3.20D-08 at cycle  17 NSaved=  17.
 NSaved=17 IEnMin=17 EnMin= -649.174990058836     IErMin=16 ErrMin= 1.72D-08
 ErrMax= 3.20D-08  0.00D+00 EMaxC= 1.00D-01 BMatC= 3.29D-14 BMatP= 4.32D-14
 IDIUse=1 WtCom= 1.00D+00 WtEn= 0.00D+00
 Coeff-Com: -0.288D-06 0.388D-06-0.943D-07-0.139D-06-0.297D-05-0.159D-06
 Coeff-Com: -0.505D-05 0.170D-04-0.777D-06 0.531D-04 0.935D-04 0.507D-03
 Coeff-Com: -0.364D-02-0.770D-02 0.162D-01 0.271D+00 0.723D+00
 Coeff:     -0.288D-06 0.388D-06-0.943D-07-0.139D-06-0.297D-05-0.159D-06
 Coeff:     -0.505D-05 0.170D-04-0.777D-06 0.531D-04 0.935D-04 0.507D-03
 Coeff:     -0.364D-02-0.770D-02 0.162D-01 0.271D+00 0.723D+00
 Gap=     0.024 Goal=   None    Shift=    0.000
 RMSDP=8.01D-09 MaxDP=4.14D-07 DE=-6.82D-13 OVMax= 8.99D-07

 SCF Done:  E(RB3LYP) =  -649.174990059     A.U. after   17 cycles
            NFock= 17  Conv=0.80D-08     -V/T= 2.0030
 KE= 6.472511828951D+02 PE=-1.707156146083D+03 EE= 3.366159816967D+02
 Leave Link  502 at Wed Aug 23 10:08:04 2023, MaxMem=  1610612736 cpu:              23.8 elap:               1.7
 (Enter /home/sekinelabo/g16/l601.exe)
 Copying SCF densities to generalized density rwf, IOpCl= 0 IROHF=0.

 **********************************************************************

            Population analysis using the SCF Density.

 **********************************************************************

 Orbital symmetries:
       Occupied  (A) (A) (A) (A) (A) (A) (A) (A) (A) (A) (A) (A)
                 (A) (A) (A) (A) (A) (A) (A) (A) (A) (A)
       Virtual   (A) (A) (A) (A) (A) (A) (A) (A) (A) (A) (A) (A)
                 (A) (A) (A) (A) (A) (A) (A) (A) (A) (A) (A) (A)
                 (A) (A) (A) (A) (A) (A) (A) (A) (A) (A) (A) (A)
                 (A) (A) (A) (A) (A) (A) (A) (A) (A) (A) (A) (A)
                 (A) (A) (A) (A) (A) (A) (A) (A) (A) (A) (A) (A)
                 (A) (A) (A) (A) (A) (A) (A) (A) (A) (A) (A) (A)
                 (A) (A) (A) (A) (A) (A) (A) (A) (A) (A) (A) (A)
                 (A) (A) (A) (A) (A) (A) (A) (A) (A) (A) (A) (A)
                 (A) (A)
 The electronic state is 1-A.
 Alpha  occ. eigenvalues --  -38.46223 -38.45695 -38.45132 -38.44586  -2.21900
 Alpha  occ. eigenvalues --   -2.21389  -2.20881  -2.20344  -1.15577  -1.15577
 Alpha  occ. eigenvalues --   -1.15541  -1.15066  -1.15066  -1.15021  -1.14571
 Alpha  occ. eigenvalues --   -1.14552  -1.14516  -1.14026  -1.14022  -1.13967
 Alpha  occ. eigenvalues --   -0.13847  -0.11250
 Alpha virt. eigenvalues --   -0.08807  -0.05179  -0.02862  -0.02798  -0.02108
 Alpha virt. eigenvalues --   -0.01575  -0.01320  -0.00944  -0.00492  -0.00123
 Alpha virt. eigenvalues --    0.00062   0.00890   0.00900   0.01120   0.01187
 Alpha virt. eigenvalues --    0.01354   0.01617   0.01724   0.01787   0.01938
 Alpha virt. eigenvalues --    0.02024   0.02052   0.02251   0.02461   0.02676
 Alpha virt. eigenvalues --    0.02898   0.03263   0.03652   0.03973   0.05110
 Alpha virt. eigenvalues --    0.06868   0.07549   0.07617   0.07702   0.07942
 Alpha virt. eigenvalues --    0.08019   0.08230   0.08497   0.08582   0.09427
 Alpha virt. eigenvalues --    0.10039   0.10341   0.11227   0.11312   0.12840
 Alpha virt. eigenvalues --    0.15680   0.28975   0.29444   0.30840   0.32599
 Alpha virt. eigenvalues --    0.32666   0.33955   0.34216   0.34335   0.34391
 Alpha virt. eigenvalues --    0.34661   0.34715   0.34789   0.35718   0.36996
 Alpha virt. eigenvalues --    0.37071   0.38464   0.40199   0.42201   0.42368
 Alpha virt. eigenvalues --    0.42812   0.43191   0.43322   0.43837   0.44390
 Alpha virt. eigenvalues --    0.45050   0.45687   0.46211   0.47535   0.47796
 Alpha virt. eigenvalues --    0.49656   0.51041   0.65075   2.00114   2.02069
 Alpha virt. eigenvalues --    2.05571   2.13479   4.41248   4.42503   4.42723
 Alpha virt. eigenvalues --    4.43202   4.43333   4.43470   4.43571   4.44216
 Alpha virt. eigenvalues --    4.44737   4.45981   4.47136   4.58209  96.18996
 Alpha virt. eigenvalues --   96.21321  96.25440  96.35415
          Condensed to atoms (all electrons):
               1          2          3          4
     1  Na  10.895202   0.196594   0.182820  -0.100819
     2  Na   0.196594  10.862617  -0.138995  -0.046852
     3  Na   0.182820  -0.138995  10.777754   0.177065
     4  Na  -0.100819  -0.046852   0.177065  10.924803
 Mulliken charges:
               1
     1  Na  -0.173796
     2  Na   0.126637
     3  Na   0.001356
     4  Na   0.045804
 Sum of Mulliken charges =  -0.00000
 Mulliken charges with hydrogens summed into heavy atoms:
               1
     1  Na  -0.173796
     2  Na   0.126637
     3  Na   0.001356
     4  Na   0.045804
 Electronic spatial extent (au):  <R**2>=           2357.1513
 Charge=             -0.0000 electrons
 Dipole moment (field-independent basis, Debye):
    X=             -0.0872    Y=             -0.5817    Z=             -0.1137  Tot=              0.5991
 Quadrupole moment (field-independent basis, Debye-Ang):
   XX=            -33.8049   YY=            -35.9952   ZZ=            -43.7885
   XY=             -0.7957   XZ=             -0.5683   YZ=             -0.1036
 Traceless Quadrupole moment (field-independent basis, Debye-Ang):
   XX=              4.0580   YY=              1.8677   ZZ=             -5.9257
   XY=             -0.7957   XZ=             -0.5683   YZ=             -0.1036
 Octapole moment (field-independent basis, Debye-Ang**2):
  XXX=              5.6873  YYY=              1.8578  ZZZ=              0.1461  XYY=             -0.7309
  XXY=            -50.8095  XXZ=             -3.1822  XZZ=              2.4380  YZZ=              3.6604
  YYZ=             -2.6519  XYZ=              9.9422
 Hexadecapole moment (field-independent basis, Debye-Ang**3):
 XXXX=          -2902.9683 YYYY=           -758.6869 ZZZZ=           -232.2039 XXXY=             -5.4787
 XXXZ=            -65.0433 YYYX=            -18.7550 YYYZ=             -5.0723 ZZZX=             -0.4921
 ZZZY=              0.1181 XXYY=           -561.7431 XXZZ=           -602.2700 YYZZ=           -166.2205
 XXYZ=              7.4660 YYXZ=              2.1459 ZZXY=             -1.6884
 N-N= 7.411399143242D+01 E-N=-1.707156145799D+03  KE= 6.472511828951D+02
 No NMR shielding tensors so no spin-rotation constants.
 Leave Link  601 at Wed Aug 23 10:08:04 2023, MaxMem=  1610612736 cpu:               0.9 elap:               0.1
 (Enter /home/sekinelabo/g16/l701.exe)
 ... and contract with generalized density number  0.
 Compute integral first derivatives.
 Leave Link  701 at Wed Aug 23 10:08:04 2023, MaxMem=  1610612736 cpu:               1.2 elap:               0.1
 (Enter /home/sekinelabo/g16/l702.exe)
 L702 exits ... SP integral derivatives will be done elsewhere.
 Leave Link  702 at Wed Aug 23 10:08:04 2023, MaxMem=  1610612736 cpu:               0.3 elap:               0.0
 (Enter /home/sekinelabo/g16/l703.exe)
 Integral derivatives from FoFJK, PRISM(SPDF).
 Compute integral first derivatives, UseDBF=F ICtDFT=           0.
 Calling FoFJK, ICntrl=      2127 FMM=F ISym2X=0 I1Cent= 0 IOpClX= 0 NMat=1 NMatS=1 NMatT=0.
 FoFJK:  IHMeth= 1 ICntrl=    2127 DoSepK=F KAlg= 0 I1Cent=           0 FoldK=F
 IRaf=         0 NMat=       1 IRICut=       1 DoRegI=T DoRafI=F ISym2E= 0 IDoP0=0 IntGTp=1.
 FoFCou: FMM=F IPFlag=           0 FMFlag=      100000 FMFlg1=         800
         NFxFlg=           0 DoJE=F BraDBF=F KetDBF=F FulRan=T
         wScrn=  0.000000 ICntrl=      2127 IOpCl=  0 I1Cent=           0 NGrid=           0
         NMat0=    1 NMatS0=      1 NMatT0=    0 NMatD0=    1 NMtDS0=    0 NMtDT0=    0
 Symmetry not used in FoFCou.
 Leave Link  703 at Wed Aug 23 10:08:04 2023, MaxMem=  1610612736 cpu:               5.6 elap:               0.4
 (Enter /home/sekinelabo/g16/l716.exe)
 Dipole        =-3.43182865D-02-2.28864460D-01-4.47354584D-02
 ***** Axes restored to original set *****
 -------------------------------------------------------------------
 Center     Atomic                   Forces (Hartrees/Bohr)
 Number     Number              X              Y              Z
 -------------------------------------------------------------------
      1       11          -0.004258042   -0.000207770   -0.005372262
      2       11           0.004203348    0.000155517    0.003858257
      3       11          -0.002105336   -0.003981852    0.003784698
      4       11           0.002160030    0.004034105   -0.002270693
 -------------------------------------------------------------------
 Cartesian Forces:  Max     0.005372262 RMS     0.003419565
 Z-matrix is all fixed cartesians, so copy forces.
 Force constants in Cartesian coordinates: 
                1             2             3             4             5 
      1  0.000000D+00
      2  0.000000D+00  0.000000D+00
      3  0.000000D+00  0.000000D+00  0.280982D-01
      4  0.000000D+00  0.000000D+00  0.000000D+00  0.100000D+01
      5  0.000000D+00  0.000000D+00  0.000000D+00  0.000000D+00  0.100000D+01
      6  0.000000D+00  0.000000D+00  0.000000D+00  0.000000D+00  0.000000D+00
      7  0.000000D+00  0.000000D+00  0.000000D+00  0.000000D+00  0.000000D+00
      8  0.000000D+00  0.000000D+00  0.000000D+00  0.000000D+00  0.000000D+00
      9  0.000000D+00  0.000000D+00 -0.280982D-01  0.000000D+00  0.000000D+00
     10  0.000000D+00  0.000000D+00  0.000000D+00  0.000000D+00  0.000000D+00
     11  0.000000D+00  0.000000D+00  0.000000D+00  0.000000D+00  0.000000D+00
     12  0.000000D+00  0.000000D+00  0.000000D+00  0.000000D+00  0.000000D+00
                6             7             8             9            10 
      6  0.100000D+01
      7  0.000000D+00  0.000000D+00
      8  0.000000D+00  0.000000D+00  0.000000D+00
      9  0.000000D+00  0.000000D+00  0.000000D+00  0.280982D-01
     10  0.000000D+00  0.000000D+00  0.000000D+00  0.000000D+00  0.100000D+01
     11  0.000000D+00  0.000000D+00  0.000000D+00  0.000000D+00  0.000000D+00
     12  0.000000D+00  0.000000D+00  0.000000D+00  0.000000D+00  0.000000D+00
               11            12 
     11  0.100000D+01
     12  0.000000D+00  0.100000D+01
 Leave Link  716 at Wed Aug 23 10:08:04 2023, MaxMem=  1610612736 cpu:               0.3 elap:               0.0
 (Enter /home/sekinelabo/g16/l103.exe)

 GradGradGradGradGradGradGradGradGradGradGradGradGradGradGradGradGradGrad
 Berny optimization.
 Search for a local minimum.
 Step number   1 out of a maximum of    2
 All quantities printed in internal units (Hartrees-Bohrs-Radians)
 Second derivative matrix not updated -- first step.
 The second derivative matrix:
                          X1        Y1        Z1        X2        Y2
           X1           0.00000
           Y1          -0.00000   0.00000
           Z1          -0.00000  -0.00000   0.02810
           X2           0.00000   0.00000   0.00000   1.00000
           Y2           0.00000   0.00000   0.00000   0.00000   1.00000
           Z2           0.00000   0.00000   0.00000  -0.00000   0.00000
           X3           0.00000   0.00000  -0.00000   0.00000   0.00000
           Y3          -0.00000   0.00000   0.00000   0.00000   0.00000
           Z3           0.00000   0.00000  -0.02810   0.00000   0.00000
           X4           0.00000   0.00000   0.00000   0.00000   0.00000
           Y4           0.00000   0.00000   0.00000   0.00000   0.00000
           Z4           0.00000   0.00000   0.00000   0.00000   0.00000
                          Z2        X3        Y3        Z3        X4
           Z2           1.00000
           X3           0.00000   0.00000
           Y3           0.00000  -0.00000   0.00000
           Z3           0.00000  -0.00000  -0.00000   0.02810
           X4           0.00000   0.00000   0.00000   0.00000   1.00000
           Y4           0.00000   0.00000   0.00000   0.00000   0.00000
           Z4           0.00000   0.00000   0.00000   0.00000  -0.00000
                          Y4        Z4
           Y4           1.00000
           Z4           0.00000   1.00000
 ITU=  0
     Eigenvalues ---    0.05620   0.08809   0.11484   0.50000   0.60020
     Eigenvalues ---    1.00000
 Angle between quadratic step and forces=  45.78 degrees.
 Linear search not attempted -- first point.
 B after Tr=     0.000000   -0.000000    0.000000
         Rot=    1.000000   -0.000000   -0.000000    0.000000 Ang=   0.00 deg.
 Variable       Old X    -DE/DX   Delta X   Delta X   Delta X     New X
                                 (Linear)    (Quad)   (Total)
    X1        0.00000  -0.00426   0.00000  -0.01424  -0.01424  -0.01424
    Y1       -0.00000  -0.00021   0.00000   0.01577   0.01577   0.01577
    Z1        0.00000  -0.00537   0.00000  -0.08368  -0.08368  -0.08368
    X2       -5.66680   0.00420   0.00000   0.01042   0.01042  -5.65639
    Y2       -0.00000   0.00016   0.00000  -0.00319  -0.00319  -0.00319
    Z2       -5.46509   0.00386   0.00000   0.00263   0.00263  -5.46246
    X3       -0.00000  -0.00211   0.00000   0.00093   0.00093   0.00093
    Y3       -0.00000  -0.00398   0.00000  -0.02319  -0.02319  -0.02319
    Z3        6.01976   0.00378   0.00000   0.07926   0.07926   6.09902
    X4       -3.70680   0.00216   0.00000   0.00290   0.00290  -3.70390
    Y4       -7.33082   0.00403   0.00000   0.01061   0.01061  -7.32021
    Z4       10.27875  -0.00227   0.00000   0.00179   0.00179  10.28054
         Item               Value     Threshold  Converged?
 Maximum Force            0.005372     0.000450     NO 
 RMS     Force            0.003420     0.000300     NO 
 Maximum Displacement     0.083682     0.001800     NO 
 RMS     Displacement     0.034791     0.001200     NO 
 Predicted change in Energy=-4.978452D-04
 GradGradGradGradGradGradGradGradGradGradGradGradGradGradGradGradGradGrad

 Leave Link  103 at Wed Aug 23 10:08:04 2023, MaxMem=  1610612736 cpu:               0.1 elap:               0.0
 (Enter /home/sekinelabo/g16/l9999.exe)
 1\1\GINC-SEKINELABO-XA7R-R37\Force\RB3LYP\6-311+G(d)\Na4\SEKINELABO\23
 -Aug-2023\0\\#p B3LYP/6-311+g(d) force\\\0,1\Na,0.,0.,0.\Na,-2.9987431
 92,0.,-2.892000357\Na,0.,0.,3.1855172664\Na,-1.9615541603,-3.879300600
 3,5.4392801343\\Version=ES64L-G16RevB.01\State=1-A\HF=-649.1749901\RMS
 D=8.008e-09\RMSF=3.420e-03\Dipole=-0.2018091,-0.1216771,0.0050687\Quad
 rupole=-0.8387832,-1.1151131,1.9538963,2.1964807,2.102011,-1.9050017\P
 G=C01 [X(Na4)]\\@


 PATIENCE IS THE ABILITY TO IDLE YOUR MOTOR WHEN
 YOU FEEL LIKE STRIPPING YOUR GEARS.
 Job cpu time:       0 days  0 hours  0 minutes 38.3 seconds.
 Elapsed time:       0 days  0 hours  0 minutes  2.6 seconds.
 File lengths (MBytes):  RWF=     10 Int=      0 D2E=      0 Chk=      2 Scr=      1
 Normal termination of Gaussian 16 at Wed Aug 23 10:08:04 2023.
 Initial command:
 /home/sekinelabo/g16/l1.exe "/home/sekinelabo/g16temp/Gau-2966229.inp" -scrdir="/home/sekinelabo/g16temp/"
 Entering Link 1 = /home/sekinelabo/g16/l1.exe PID=   2968409.
  
 Copyright (c) 1988-2017, Gaussian, Inc.  All Rights Reserved.
  
 This is part of the Gaussian(R) 16 program.  It is based on
 the Gaussian(R) 09 system (copyright 2009, Gaussian, Inc.),
 the Gaussian(R) 03 system (copyright 2003, Gaussian, Inc.),
 the Gaussian(R) 98 system (copyright 1998, Gaussian, Inc.),
 the Gaussian(R) 94 system (copyright 1995, Gaussian, Inc.),
 the Gaussian 92(TM) system (copyright 1992, Gaussian, Inc.),
 the Gaussian 90(TM) system (copyright 1990, Gaussian, Inc.),
 the Gaussian 88(TM) system (copyright 1988, Gaussian, Inc.),
 the Gaussian 86(TM) system (copyright 1986, Carnegie Mellon
 University), and the Gaussian 82(TM) system (copyright 1983,
 Carnegie Mellon University). Gaussian is a federally registered
 trademark of Gaussian, Inc.
  
 This software contains proprietary and confidential information,
 including trade secrets, belonging to Gaussian, Inc.
  
 This software is provided under written license and may be
 used, copied, transmitted, or stored only in accord with that
 written license.
  
 The following legend is applicable only to US Government
 contracts under FAR:
  
                    RESTRICTED RIGHTS LEGEND
  
 Use, reproduction and disclosure by the US Government is
 subject to restrictions as set forth in subparagraphs (a)
 and (c) of the Commercial Computer Software - Restricted
 Rights clause in FAR 52.227-19.
  
 Gaussian, Inc.
 340 Quinnipiac St., Bldg. 40, Wallingford CT 06492
  
  
 ---------------------------------------------------------------
 Warning -- This program may not be used in any manner that
 competes with the business of Gaussian, Inc. or will provide
 assistance to any competitor of Gaussian, Inc.  The licensee
 of this program is prohibited from giving any competitor of
 Gaussian, Inc. access to this program.  By using this program,
 the user acknowledges that Gaussian, Inc. is engaged in the
 business of creating and licensing software in the field of
 computational chemistry and represents and warrants to the
 licensee that it is not a competitor of Gaussian, Inc. and that
 it will not use this program in any manner prohibited above.
 ---------------------------------------------------------------
  

 Cite this work as:
 Gaussian 16, Revision B.01,
 M. J. Frisch, G. W. Trucks, H. B. Schlegel, G. E. Scuseria, 
 M. A. Robb, J. R. Cheeseman, G. Scalmani, V. Barone, 
 G. A. Petersson, H. Nakatsuji, X. Li, M. Caricato, A. V. Marenich, 
 J. Bloino, B. G. Janesko, R. Gomperts, B. Mennucci, H. P. Hratchian, 
 J. V. Ortiz, A. F. Izmaylov, J. L. Sonnenberg, D. Williams-Young, 
 F. Ding, F. Lipparini, F. Egidi, J. Goings, B. Peng, A. Petrone, 
 T. Henderson, D. Ranasinghe, V. G. Zakrzewski, J. Gao, N. Rega, 
 G. Zheng, W. Liang, M. Hada, M. Ehara, K. Toyota, R. Fukuda, 
 J. Hasegawa, M. Ishida, T. Nakajima, Y. Honda, O. Kitao, H. Nakai, 
 T. Vreven, K. Throssell, J. A. Montgomery, Jr., J. E. Peralta, 
 F. Ogliaro, M. J. Bearpark, J. J. Heyd, E. N. Brothers, K. N. Kudin, 
 V. N. Staroverov, T. A. Keith, R. Kobayashi, J. Normand, 
 K. Raghavachari, A. P. Rendell, J. C. Burant, S. S. Iyengar, 
 J. Tomasi, M. Cossi, J. M. Millam, M. Klene, C. Adamo, R. Cammi, 
 J. W. Ochterski, R. L. Martin, K. Morokuma, O. Farkas, 
 J. B. Foresman, and D. J. Fox, Gaussian, Inc., Wallingford CT, 2016.
 
 ******************************************
 Gaussian 16:  ES64L-G16RevB.01 20-Dec-2017
                28-Aug-2023 
 ******************************************
 %NProcShared=16
 Will use up to   16 processors via shared memory.
 %mem=12GB
 %Chk=checkpoint.chk
 -------------------------
 #p B3LYP/6-311+g(d) force
 -------------------------
 1/10=7,30=1,38=1/1,3;
 2/12=2,17=6,18=5,40=1/2;
 3/5=4,6=6,7=11,11=2,25=1,30=1,71=1,74=-5/1,2,3;
 4//1;
 5/5=2,38=5/2;
 6/7=2,8=2,9=2,10=2,28=1/1;
 7/29=1/1,2,3,16;
 1/10=7,30=1/3;
 99//99;
 Leave Link    1 at Mon Aug 28 10:18:22 2023, MaxMem=  1610612736 cpu:               0.2 elap:               0.0
 (Enter /home/sekinelabo/g16/l101.exe)


 Symbolic Z-matrix:
 Charge =  0 Multiplicity = 1
 Na                    0.        0.        0. 
 Na                   -3.56455   0.       -2.44994 
 Na                    0.        0.        5.75058 
 Na                    2.36716  -2.83167   4.49781 
 
 ITRead=  0  0  0  0
 MicOpt= -1 -1 -1 -1
 NAtoms=      4 NQM=        4 NQMF=       0 NMMI=      0 NMMIF=      0
                NMic=       0 NMicF=      0.
                    Isotopes and Nuclear Properties:
 (Nuclear quadrupole moments (NQMom) in fm**2, nuclear magnetic moments (NMagM)
  in nuclear magnetons)

  Atom         1           2           3           4
 IAtWgt=          23          23          23          23
 AtmWgt=  22.9897697  22.9897697  22.9897697  22.9897697
 NucSpn=           3           3           3           3
 AtZEff=  -0.0000000  -0.0000000  -0.0000000  -0.0000000
 NQMom=   10.4000000  10.4000000  10.4000000  10.4000000
 NMagM=    2.2175200   2.2175200   2.2175200   2.2175200
 AtZNuc=  11.0000000  11.0000000  11.0000000  11.0000000
 Leave Link  101 at Mon Aug 28 10:18:22 2023, MaxMem=  1610612736 cpu:               1.8 elap:               0.1
 (Enter /home/sekinelabo/g16/l103.exe)

 GradGradGradGradGradGradGradGradGradGradGradGradGradGradGradGradGradGrad
 Berny optimization.
 Initialization pass.
 Trust Radius=3.00D-01 FncErr=1.00D-07 GrdErr=1.00D-07 EigMax=2.50D+02 EigMin=1.00D-04
 Number of steps in this run=      2 maximum allowed number of steps=      2.
 GradGradGradGradGradGradGradGradGradGradGradGradGradGradGradGradGradGrad

 Leave Link  103 at Mon Aug 28 10:18:22 2023, MaxMem=  1610612736 cpu:               0.2 elap:               0.0
 (Enter /home/sekinelabo/g16/l202.exe)
                          Input orientation:                          
 ---------------------------------------------------------------------
 Center     Atomic      Atomic             Coordinates (Angstroms)
 Number     Number       Type             X           Y           Z
 ---------------------------------------------------------------------
      1         11           0        0.000000    0.000000    0.000000
      2         11           0       -3.564547    0.000000   -2.449941
      3         11           0        0.000000    0.000000    5.750583
      4         11           0        2.367165   -2.831669    4.497810
 ---------------------------------------------------------------------
                    Distance matrix (angstroms):
                    1          2          3          4
     1  Na   0.000000
     2  Na   4.325298   0.000000
     3  Na   5.750583   8.941733   0.000000
     4  Na   5.818257   9.564246   3.897597   0.000000
 Stoichiometry    Na4
 Framework group  C1[X(Na4)]
 Deg. of freedom     6
 Full point group                 C1      NOp   1
 Largest Abelian subgroup         C1      NOp   1
 Largest concise Abelian subgroup C1      NOp   1
                         Standard orientation:                         
 ---------------------------------------------------------------------
 Center     Atomic      Atomic             Coordinates (Angstroms)
 Number     Number       Type             X           Y           Z
 ---------------------------------------------------------------------
      1         11           0        1.642315   -0.734785    1.074541
      2         11           0        5.479759    0.289239   -0.638235
      3         11           0       -3.243371    2.124767    0.063487
      4         11           0       -3.878702   -1.679221   -0.499793
 ---------------------------------------------------------------------
 Rotational constants (GHZ):           2.2491550           0.3657423           0.3318319
 Leave Link  202 at Mon Aug 28 10:18:22 2023, MaxMem=  1610612736 cpu:               0.0 elap:               0.0
 (Enter /home/sekinelabo/g16/l301.exe)
 Standard basis: 6-311+G(d) (5D, 7F)
 Ernie: Thresh=  0.10000D-02 Tol=  0.10000D-05 Strict=F.
 There are   124 symmetry adapted cartesian basis functions of A   symmetry.
 There are   120 symmetry adapted basis functions of A   symmetry.
   120 basis functions,   200 primitive gaussians,   124 cartesian basis functions
    22 alpha electrons       22 beta electrons
       nuclear repulsion energy        67.2272090525 Hartrees.
 IExCor=  402 DFT=T Ex+Corr=B3LYP ExCW=0 ScaHFX=  0.200000
 ScaDFX=  0.800000  0.720000  1.000000  0.810000 ScalE2=  1.000000  1.000000
 IRadAn=      5 IRanWt=     -1 IRanGd=            0 ICorTp=0 IEmpDi=  4
 NAtoms=    4 NActive=    4 NUniq=    4 SFac= 1.00D+00 NAtFMM=   60 NAOKFM=F Big=F
 Integral buffers will be    131072 words long.
 Raffenetti 2 integral format.
 Two-electron integral symmetry is turned on.
 Leave Link  301 at Mon Aug 28 10:18:22 2023, MaxMem=  1610612736 cpu:               0.4 elap:               0.0
 (Enter /home/sekinelabo/g16/l302.exe)
 NPDir=0 NMtPBC=     1 NCelOv=     1 NCel=       1 NClECP=     1 NCelD=      1
         NCelK=      1 NCelE2=     1 NClLst=     1 CellRange=     0.0.
 One-electron integrals computed using PRISM.
 One-electron integral symmetry used in STVInt
 NBasis=   120 RedAO= T EigKep=  4.47D-04  NBF=   120
 NBsUse=   120 1.00D-06 EigRej= -1.00D+00 NBFU=   120
 Precomputing XC quadrature grid using
 IXCGrd= 4 IRadAn=           5 IRanWt=          -1 IRanGd=           0 AccXCQ= 0.00D+00.
 Generated NRdTot=       0 NPtTot=           0 NUsed=           0 NTot=          32
 NSgBfM=   115   114   114   115   115 MxSgAt=     4 MxSgA2=     4.
 Leave Link  302 at Mon Aug 28 10:18:22 2023, MaxMem=  1610612736 cpu:               1.3 elap:               0.1
 (Enter /home/sekinelabo/g16/l303.exe)
 DipDrv:  MaxL=1.
 Leave Link  303 at Mon Aug 28 10:18:22 2023, MaxMem=  1610612736 cpu:               0.3 elap:               0.0
 (Enter /home/sekinelabo/g16/l401.exe)
 ExpMin= 7.60D-03 ExpMax= 3.62D+04 ExpMxC= 1.21D+03 IAcc=3 IRadAn=         5 AccDes= 0.00D+00
 Harris functional with IExCor=  402 and IRadAn=       5 diagonalized for initial guess.
 HarFok:  IExCor=  402 AccDes= 0.00D+00 IRadAn=         5 IDoV= 1 UseB2=F ITyADJ=14
 ICtDFT=  3500011 ScaDFX=  1.000000  1.000000  1.000000  1.000000
 FoFCou: FMM=F IPFlag=           0 FMFlag=      100000 FMFlg1=           0
         NFxFlg=           0 DoJE=T BraDBF=F KetDBF=T FulRan=T
         wScrn=  0.000000 ICntrl=       500 IOpCl=  0 I1Cent=   200000004 NGrid=           0
         NMat0=    1 NMatS0=      1 NMatT0=    0 NMatD0=    1 NMtDS0=    0 NMtDT0=    0
 Petite list used in FoFCou.
 Harris En= -649.052671807363    
 JPrj=0 DoOrth=F DoCkMO=F.
 Leave Link  401 at Mon Aug 28 10:18:22 2023, MaxMem=  1610612736 cpu:               2.0 elap:               0.1
 (Enter /home/sekinelabo/g16/l502.exe)
 Keep R1 ints in memory in canonical form, NReq=41581754.
 FoFCou: FMM=F IPFlag=           0 FMFlag=           0 FMFlg1=           0
         NFxFlg=           0 DoJE=F BraDBF=F KetDBF=F FulRan=T
         wScrn=  0.000000 ICntrl=       600 IOpCl=  0 I1Cent=           0 NGrid=           0
         NMat0=    1 NMatS0=   7260 NMatT0=    0 NMatD0=    1 NMtDS0=    0 NMtDT0=    0
 Symmetry not used in FoFCou.
 Two-electron integral symmetry not used.
 Closed shell SCF:
 Using DIIS extrapolation, IDIIS=  1040.
 NGot=  1610612736 LenX=  1584221388 LenY=  1584205571
 Requested convergence on RMS density matrix=1.00D-08 within 128 cycles.
 Requested convergence on MAX density matrix=1.00D-06.
 Requested convergence on             energy=1.00D-06.
 No special actions if energy rises.

 Cycle   1  Pass 1  IDiag  1:
 E= -649.166122423802    
 DIIS: error= 1.43D-02 at cycle   1 NSaved=   1.
 NSaved= 1 IEnMin= 1 EnMin= -649.166122423802     IErMin= 1 ErrMin= 1.43D-02
 ErrMax= 1.43D-02  0.00D+00 EMaxC= 1.00D-01 BMatC= 2.68D-02 BMatP= 2.68D-02
 IDIUse=3 WtCom= 8.57D-01 WtEn= 1.43D-01
 Coeff-Com:  0.100D+01
 Coeff-En:   0.100D+01
 Coeff:      0.100D+01
 Gap=     0.046 Goal=   None    Shift=    0.000
 GapD=    0.046 DampG=0.250 DampE=0.500 DampFc=0.2500 IDamp=-1.
 Damping current iteration by 2.50D-01
 RMSDP=1.72D-03 MaxDP=4.82D-02              OVMax= 6.34D-02

 Cycle   2  Pass 1  IDiag  1:
 E= -649.170200074397     Delta-E=       -0.004077650594 Rises=F Damp=T
 DIIS: error= 1.00D-02 at cycle   2 NSaved=   2.
 NSaved= 2 IEnMin= 2 EnMin= -649.170200074397     IErMin= 2 ErrMin= 1.00D-02
 ErrMax= 1.00D-02  0.00D+00 EMaxC= 1.00D-01 BMatC= 1.03D-02 BMatP= 2.68D-02
 IDIUse=3 WtCom= 9.00D-01 WtEn= 1.00D-01
 Coeff-Com: -0.129D+01 0.229D+01
 Coeff-En:   0.000D+00 0.100D+01
 Coeff:     -0.116D+01 0.216D+01
 Gap=     0.042 Goal=   None    Shift=    0.000
 RMSDP=1.37D-03 MaxDP=3.92D-02 DE=-4.08D-03 OVMax= 1.95D-02

 Cycle   3  Pass 1  IDiag  1:
 E= -649.178740486720     Delta-E=       -0.008540412324 Rises=F Damp=F
 DIIS: error= 2.71D-04 at cycle   3 NSaved=   3.
 NSaved= 3 IEnMin= 3 EnMin= -649.178740486720     IErMin= 3 ErrMin= 2.71D-04
 ErrMax= 2.71D-04  0.00D+00 EMaxC= 1.00D-01 BMatC= 1.65D-05 BMatP= 1.03D-02
 IDIUse=3 WtCom= 9.97D-01 WtEn= 2.71D-03
 Coeff-Com:  0.646D-01-0.827D-01 0.102D+01
 Coeff-En:   0.000D+00 0.000D+00 0.100D+01
 Coeff:      0.645D-01-0.825D-01 0.102D+01
 Gap=     0.043 Goal=   None    Shift=    0.000
 RMSDP=2.80D-04 MaxDP=1.26D-02 DE=-8.54D-03 OVMax= 2.13D-02

 Cycle   4  Pass 1  IDiag  1:
 E= -649.178673797100     Delta-E=        0.000066689621 Rises=F Damp=F
 DIIS: error= 3.74D-04 at cycle   4 NSaved=   4.
 NSaved= 4 IEnMin= 3 EnMin= -649.178740486720     IErMin= 3 ErrMin= 2.71D-04
 ErrMax= 3.74D-04  0.00D+00 EMaxC= 1.00D-01 BMatC= 1.70D-05 BMatP= 1.65D-05
 IDIUse=3 WtCom= 9.96D-01 WtEn= 3.74D-03
 Coeff-Com:  0.412D-01-0.544D-01 0.619D+00 0.394D+00
 Coeff-En:   0.000D+00 0.000D+00 0.710D+00 0.290D+00
 Coeff:      0.411D-01-0.542D-01 0.619D+00 0.394D+00
 Gap=     0.044 Goal=   None    Shift=    0.000
 RMSDP=2.25D-04 MaxDP=1.16D-02 DE= 6.67D-05 OVMax= 1.96D-02

 Cycle   5  Pass 1  IDiag  1:
 E= -649.178772612882     Delta-E=       -0.000098815782 Rises=F Damp=F
 DIIS: error= 1.33D-04 at cycle   5 NSaved=   5.
 NSaved= 5 IEnMin= 5 EnMin= -649.178772612882     IErMin= 5 ErrMin= 1.33D-04
 ErrMax= 1.33D-04  0.00D+00 EMaxC= 1.00D-01 BMatC= 1.62D-06 BMatP= 1.65D-05
 IDIUse=3 WtCom= 9.99D-01 WtEn= 1.33D-03
 Coeff-Com:  0.924D-02-0.129D-01 0.157D+00 0.243D+00 0.604D+00
 Coeff-En:   0.000D+00 0.000D+00 0.000D+00 0.106D+00 0.894D+00
 Coeff:      0.923D-02-0.129D-01 0.157D+00 0.243D+00 0.604D+00
 Gap=     0.043 Goal=   None    Shift=    0.000
 RMSDP=6.47D-05 MaxDP=4.07D-03 DE=-9.88D-05 OVMax= 6.13D-03

 Cycle   6  Pass 1  IDiag  1:
 E= -649.178781977826     Delta-E=       -0.000009364944 Rises=F Damp=F
 DIIS: error= 3.76D-05 at cycle   6 NSaved=   6.
 NSaved= 6 IEnMin= 6 EnMin= -649.178781977826     IErMin= 6 ErrMin= 3.76D-05
 ErrMax= 3.76D-05  0.00D+00 EMaxC= 1.00D-01 BMatC= 1.99D-07 BMatP= 1.62D-06
 IDIUse=1 WtCom= 1.00D+00 WtEn= 0.00D+00
 Coeff-Com:  0.276D-02-0.410D-02 0.594D-01 0.121D+00 0.356D+00 0.464D+00
 Coeff:      0.276D-02-0.410D-02 0.594D-01 0.121D+00 0.356D+00 0.464D+00
 Gap=     0.044 Goal=   None    Shift=    0.000
 RMSDP=2.31D-05 MaxDP=1.18D-03 DE=-9.36D-06 OVMax= 1.62D-03

 Cycle   7  Pass 1  IDiag  1:
 E= -649.178783011466     Delta-E=       -0.000001033641 Rises=F Damp=F
 DIIS: error= 9.78D-06 at cycle   7 NSaved=   7.
 NSaved= 7 IEnMin= 7 EnMin= -649.178783011466     IErMin= 7 ErrMin= 9.78D-06
 ErrMax= 9.78D-06  0.00D+00 EMaxC= 1.00D-01 BMatC= 1.43D-08 BMatP= 1.99D-07
 IDIUse=1 WtCom= 1.00D+00 WtEn= 0.00D+00
 Coeff-Com: -0.105D-02 0.134D-02-0.678D-02-0.551D-02-0.966D-03 0.209D+00
 Coeff-Com:  0.804D+00
 Coeff:     -0.105D-02 0.134D-02-0.678D-02-0.551D-02-0.966D-03 0.209D+00
 Coeff:      0.804D+00
 Gap=     0.044 Goal=   None    Shift=    0.000
 RMSDP=5.25D-06 MaxDP=2.75D-04 DE=-1.03D-06 OVMax= 3.55D-04

 Cycle   8  Pass 1  IDiag  1:
 E= -649.178783089050     Delta-E=       -0.000000077584 Rises=F Damp=F
 DIIS: error= 9.11D-07 at cycle   8 NSaved=   8.
 NSaved= 8 IEnMin= 8 EnMin= -649.178783089050     IErMin= 8 ErrMin= 9.11D-07
 ErrMax= 9.11D-07  0.00D+00 EMaxC= 1.00D-01 BMatC= 1.43D-10 BMatP= 1.43D-08
 IDIUse=1 WtCom= 1.00D+00 WtEn= 0.00D+00
 Coeff-Com: -0.517D-05 0.621D-05-0.158D-02-0.517D-02-0.118D-01 0.113D-01
 Coeff-Com:  0.104D+00 0.903D+00
 Coeff:     -0.517D-05 0.621D-05-0.158D-02-0.517D-02-0.118D-01 0.113D-01
 Coeff:      0.104D+00 0.903D+00
 Gap=     0.044 Goal=   None    Shift=    0.000
 RMSDP=8.12D-07 MaxDP=4.06D-05 DE=-7.76D-08 OVMax= 6.49D-05

 Cycle   9  Pass 1  IDiag  1:
 E= -649.178783089523     Delta-E=       -0.000000000473 Rises=F Damp=F
 DIIS: error= 6.88D-07 at cycle   9 NSaved=   9.
 NSaved= 9 IEnMin= 9 EnMin= -649.178783089523     IErMin= 9 ErrMin= 6.88D-07
 ErrMax= 6.88D-07  0.00D+00 EMaxC= 1.00D-01 BMatC= 3.19D-11 BMatP= 1.43D-10
 IDIUse=1 WtCom= 1.00D+00 WtEn= 0.00D+00
 Coeff-Com:  0.648D-04-0.832D-04-0.242D-03-0.146D-02-0.601D-02-0.530D-02
 Coeff-Com: -0.607D-02 0.327D+00 0.692D+00
 Coeff:      0.648D-04-0.832D-04-0.242D-03-0.146D-02-0.601D-02-0.530D-02
 Coeff:     -0.607D-02 0.327D+00 0.692D+00
 Gap=     0.044 Goal=   None    Shift=    0.000
 RMSDP=2.87D-07 MaxDP=1.73D-05 DE=-4.73D-10 OVMax= 2.75D-05

 Cycle  10  Pass 1  IDiag  1:
 E= -649.178783089795     Delta-E=       -0.000000000272 Rises=F Damp=F
 DIIS: error= 3.26D-08 at cycle  10 NSaved=  10.
 NSaved=10 IEnMin=10 EnMin= -649.178783089795     IErMin=10 ErrMin= 3.26D-08
 ErrMax= 3.26D-08  0.00D+00 EMaxC= 1.00D-01 BMatC= 2.01D-13 BMatP= 3.19D-11
 IDIUse=1 WtCom= 1.00D+00 WtEn= 0.00D+00
 Coeff-Com:  0.623D-05-0.773D-05 0.460D-04 0.465D-04-0.186D-03-0.130D-02
 Coeff-Com: -0.624D-02-0.483D-02 0.856D-01 0.927D+00
 Coeff:      0.623D-05-0.773D-05 0.460D-04 0.465D-04-0.186D-03-0.130D-02
 Coeff:     -0.624D-02-0.483D-02 0.856D-01 0.927D+00
 Gap=     0.044 Goal=   None    Shift=    0.000
 RMSDP=3.37D-08 MaxDP=8.15D-07 DE=-2.72D-10 OVMax= 1.74D-06

 Cycle  11  Pass 1  IDiag  1:
 E= -649.178783089794     Delta-E=        0.000000000001 Rises=F Damp=F
 DIIS: error= 9.61D-09 at cycle  11 NSaved=  11.
 NSaved=11 IEnMin=10 EnMin= -649.178783089795     IErMin=11 ErrMin= 9.61D-09
 ErrMax= 9.61D-09  0.00D+00 EMaxC= 1.00D-01 BMatC= 1.10D-14 BMatP= 2.01D-13
 IDIUse=1 WtCom= 1.00D+00 WtEn= 0.00D+00
 Coeff-Com: -0.367D-05 0.481D-05 0.151D-04 0.766D-04 0.257D-03 0.181D-03
 Coeff-Com: -0.193D-03-0.152D-01-0.258D-01 0.111D+00 0.930D+00
 Coeff:     -0.367D-05 0.481D-05 0.151D-04 0.766D-04 0.257D-03 0.181D-03
 Coeff:     -0.193D-03-0.152D-01-0.258D-01 0.111D+00 0.930D+00
 Gap=     0.044 Goal=   None    Shift=    0.000
 RMSDP=6.84D-09 MaxDP=2.19D-07 DE= 1.14D-12 OVMax= 3.84D-07

 SCF Done:  E(RB3LYP) =  -649.178783090     A.U. after   11 cycles
            NFock= 11  Conv=0.68D-08     -V/T= 2.0031
 KE= 6.472029240782D+02 PE=-1.693376942653D+03 EE= 3.297680264329D+02
 Leave Link  502 at Mon Aug 28 10:18:23 2023, MaxMem=  1610612736 cpu:              16.6 elap:               1.2
 (Enter /home/sekinelabo/g16/l601.exe)
 Copying SCF densities to generalized density rwf, IOpCl= 0 IROHF=0.

 **********************************************************************

            Population analysis using the SCF Density.

 **********************************************************************

 Orbital symmetries:
       Occupied  (A) (A) (A) (A) (A) (A) (A) (A) (A) (A) (A) (A)
                 (A) (A) (A) (A) (A) (A) (A) (A) (A) (A)
       Virtual   (A) (A) (A) (A) (A) (A) (A) (A) (A) (A) (A) (A)
                 (A) (A) (A) (A) (A) (A) (A) (A) (A) (A) (A) (A)
                 (A) (A) (A) (A) (A) (A) (A) (A) (A) (A) (A) (A)
                 (A) (A) (A) (A) (A) (A) (A) (A) (A) (A) (A) (A)
                 (A) (A) (A) (A) (A) (A) (A) (A) (A) (A) (A) (A)
                 (A) (A) (A) (A) (A) (A) (A) (A) (A) (A) (A) (A)
                 (A) (A) (A) (A) (A) (A) (A) (A) (A) (A) (A) (A)
                 (A) (A) (A) (A) (A) (A) (A) (A) (A) (A) (A) (A)
                 (A) (A)
 The electronic state is 1-A.
 Alpha  occ. eigenvalues --  -38.45809 -38.45704 -38.45230 -38.44825  -2.21507
 Alpha  occ. eigenvalues --   -2.21404  -2.20910  -2.20512  -1.15187  -1.15183
 Alpha  occ. eigenvalues --   -1.15124  -1.15084  -1.15082  -1.15020  -1.14597
 Alpha  occ. eigenvalues --   -1.14591  -1.14524  -1.14194  -1.14194  -1.14134
 Alpha  occ. eigenvalues --   -0.13064  -0.11454
 Alpha virt. eigenvalues --   -0.07102  -0.06759  -0.02659  -0.02579  -0.01894
 Alpha virt. eigenvalues --   -0.01837  -0.01416  -0.00704  -0.00271  -0.00003
 Alpha virt. eigenvalues --    0.00342   0.00362   0.00584   0.00699   0.01132
 Alpha virt. eigenvalues --    0.01226   0.01529   0.01613   0.01785   0.01892
 Alpha virt. eigenvalues --    0.01970   0.02229   0.02387   0.02582   0.02640
 Alpha virt. eigenvalues --    0.02918   0.02943   0.03060   0.03583   0.03928
 Alpha virt. eigenvalues --    0.06665   0.07272   0.07601   0.07954   0.08294
 Alpha virt. eigenvalues --    0.08331   0.08680   0.08825   0.08893   0.09362
 Alpha virt. eigenvalues --    0.09578   0.10128   0.10569   0.11482   0.12639
 Alpha virt. eigenvalues --    0.12657   0.30809   0.30842   0.31238   0.32665
 Alpha virt. eigenvalues --    0.33235   0.33330   0.34488   0.34729   0.35075
 Alpha virt. eigenvalues --    0.35304   0.35434   0.35509   0.35842   0.35996
 Alpha virt. eigenvalues --    0.37893   0.37972   0.39473   0.39498   0.40577
 Alpha virt. eigenvalues --    0.41664   0.42834   0.43083   0.43472   0.43547
 Alpha virt. eigenvalues --    0.44072   0.44294   0.45176   0.45837   0.46804
 Alpha virt. eigenvalues --    0.48332   0.49724   0.51144   2.00030   2.00964
 Alpha virt. eigenvalues --    2.05610   2.06895   4.42490   4.42882   4.43039
 Alpha virt. eigenvalues --    4.43384   4.43657   4.43751   4.44119   4.44179
 Alpha virt. eigenvalues --    4.44733   4.44984   4.45888   4.48468  96.18881
 Alpha virt. eigenvalues --   96.19986  96.25269  96.26939
          Condensed to atoms (all electrons):
               1          2          3          4
     1  Na  10.887865   0.248381  -0.025594  -0.046576
     2  Na   0.248381  10.786496  -0.020559  -0.022565
     3  Na  -0.025594  -0.020559  10.729895   0.291022
     4  Na  -0.046576  -0.022565   0.291022  10.747526
 Mulliken charges:
               1
     1  Na  -0.064076
     2  Na   0.008247
     3  Na   0.025236
     4  Na   0.030593
 Sum of Mulliken charges =  -0.00000
 Mulliken charges with hydrogens summed into heavy atoms:
               1
     1  Na  -0.064076
     2  Na   0.008247
     3  Na   0.025236
     4  Na   0.030593
 Electronic spatial extent (au):  <R**2>=           2758.0909
 Charge=              0.0000 electrons
 Dipole moment (field-independent basis, Debye):
    X=             -1.7743    Y=              0.1907    Z=             -0.1615  Tot=              1.7918
 Quadrupole moment (field-independent basis, Debye-Ang):
   XX=            -37.9872   YY=            -31.5975   ZZ=            -44.0408
   XY=              4.0461   XZ=             -3.1815   YZ=              0.7154
 Traceless Quadrupole moment (field-independent basis, Debye-Ang):
   XX=             -0.1120   YY=              6.2776   ZZ=             -6.1656
   XY=              4.0461   XZ=             -3.1815   YZ=              0.7154
 Octapole moment (field-independent basis, Debye-Ang**2):
  XXX=             49.3777  YYY=             11.4021  ZZZ=              0.1465  XYY=            -54.4185
  XXY=              2.2900  XXZ=            -34.4299  XZZ=             -2.8150  YZZ=             -1.5637
  YYZ=             -2.0522  XYZ=            -10.4807
 Hexadecapole moment (field-independent basis, Debye-Ang**3):
 XXXX=          -3446.2251 YYYY=           -537.1920 ZZZZ=           -311.4938 XXXY=            189.0822
 XXXZ=           -156.0985 YYYX=             -4.9431 YYYZ=             10.3515 ZZZX=            -14.7366
 ZZZY=              2.5366 XXYY=           -627.2072 XXZZ=           -729.2567 YYZZ=           -150.3732
 XXYZ=             21.2808 YYXZ=              5.3533 ZZXY=              9.8019
 N-N= 6.722720905253D+01 E-N=-1.693376943751D+03  KE= 6.472029240782D+02
 No NMR shielding tensors so no spin-rotation constants.
 Leave Link  601 at Mon Aug 28 10:18:23 2023, MaxMem=  1610612736 cpu:               0.9 elap:               0.1
 (Enter /home/sekinelabo/g16/l701.exe)
 ... and contract with generalized density number  0.
 Compute integral first derivatives.
 Leave Link  701 at Mon Aug 28 10:18:24 2023, MaxMem=  1610612736 cpu:               1.3 elap:               0.1
 (Enter /home/sekinelabo/g16/l702.exe)
 L702 exits ... SP integral derivatives will be done elsewhere.
 Leave Link  702 at Mon Aug 28 10:18:24 2023, MaxMem=  1610612736 cpu:               0.5 elap:               0.0
 (Enter /home/sekinelabo/g16/l703.exe)
 Integral derivatives from FoFJK, PRISM(SPDF).
 Compute integral first derivatives, UseDBF=F ICtDFT=           0.
 Calling FoFJK, ICntrl=      2127 FMM=F ISym2X=0 I1Cent= 0 IOpClX= 0 NMat=1 NMatS=1 NMatT=0.
 FoFJK:  IHMeth= 1 ICntrl=    2127 DoSepK=F KAlg= 0 I1Cent=           0 FoldK=F
 IRaf=         0 NMat=       1 IRICut=       1 DoRegI=T DoRafI=F ISym2E= 0 IDoP0=0 IntGTp=1.
 FoFCou: FMM=F IPFlag=           0 FMFlag=      100000 FMFlg1=         800
         NFxFlg=           0 DoJE=F BraDBF=F KetDBF=F FulRan=T
         wScrn=  0.000000 ICntrl=      2127 IOpCl=  0 I1Cent=           0 NGrid=           0
         NMat0=    1 NMatS0=      1 NMatT0=    0 NMatD0=    1 NMtDS0=    0 NMtDT0=    0
 Symmetry not used in FoFCou.
 Leave Link  703 at Mon Aug 28 10:18:24 2023, MaxMem=  1610612736 cpu:               5.6 elap:               0.4
 (Enter /home/sekinelabo/g16/l716.exe)
 Dipole        =-6.98079792D-01 7.50150391D-02-6.35265964D-02
 ***** Axes restored to original set *****
 -------------------------------------------------------------------
 Center     Atomic                   Forces (Hartrees/Bohr)
 Number     Number              X              Y              Z
 -------------------------------------------------------------------
      1       11          -0.006581531   -0.000274927   -0.003583334
      2       11           0.006688261    0.000041531    0.004496349
      3       11           0.004856127   -0.005765514   -0.003128700
      4       11          -0.004962856    0.005998910    0.002215685
 -------------------------------------------------------------------
 Cartesian Forces:  Max     0.006688261 RMS     0.004594581
 Z-matrix is all fixed cartesians, so copy forces.
 Force constants in Cartesian coordinates: 
                1             2             3             4             5 
      1  0.100000D+01
      2  0.000000D+00  0.100000D+01
      3  0.000000D+00  0.000000D+00  0.100000D+01
      4  0.000000D+00  0.000000D+00  0.000000D+00  0.100000D+01
      5  0.000000D+00  0.000000D+00  0.000000D+00  0.000000D+00  0.100000D+01
      6  0.000000D+00  0.000000D+00  0.000000D+00  0.000000D+00  0.000000D+00
      7  0.000000D+00  0.000000D+00  0.000000D+00  0.000000D+00  0.000000D+00
      8  0.000000D+00  0.000000D+00  0.000000D+00  0.000000D+00  0.000000D+00
      9  0.000000D+00  0.000000D+00  0.000000D+00  0.000000D+00  0.000000D+00
     10  0.000000D+00  0.000000D+00  0.000000D+00  0.000000D+00  0.000000D+00
     11  0.000000D+00  0.000000D+00  0.000000D+00  0.000000D+00  0.000000D+00
     12  0.000000D+00  0.000000D+00  0.000000D+00  0.000000D+00  0.000000D+00
                6             7             8             9            10 
      6  0.100000D+01
      7  0.000000D+00  0.430256D-02
      8  0.000000D+00 -0.514684D-02  0.615679D-02
      9  0.000000D+00 -0.227704D-02  0.272386D-02  0.120507D-02
     10  0.000000D+00 -0.430256D-02  0.514684D-02  0.227704D-02  0.430256D-02
     11  0.000000D+00  0.514684D-02 -0.615679D-02 -0.272386D-02 -0.514684D-02
     12  0.000000D+00  0.227704D-02 -0.272386D-02 -0.120507D-02 -0.227704D-02
               11            12 
     11  0.615679D-02
     12  0.272386D-02  0.120507D-02
 Leave Link  716 at Mon Aug 28 10:18:24 2023, MaxMem=  1610612736 cpu:               0.3 elap:               0.0
 (Enter /home/sekinelabo/g16/l103.exe)

 GradGradGradGradGradGradGradGradGradGradGradGradGradGradGradGradGradGrad
 Berny optimization.
 Search for a local minimum.
 Step number   1 out of a maximum of    2
 All quantities printed in internal units (Hartrees-Bohrs-Radians)
 Second derivative matrix not updated -- first step.
 The second derivative matrix:
                          X1        Y1        Z1        X2        Y2
           X1           1.00000
           Y1          -0.00000   1.00000
           Z1           0.00000   0.00000   1.00000
           X2           0.00000   0.00000   0.00000   1.00000
           Y2           0.00000   0.00000   0.00000  -0.00000   1.00000
           Z2           0.00000   0.00000   0.00000   0.00000   0.00000
           X3           0.00000   0.00000   0.00000   0.00000   0.00000
           Y3           0.00000   0.00000   0.00000   0.00000   0.00000
           Z3           0.00000   0.00000   0.00000   0.00000   0.00000
           X4           0.00000   0.00000   0.00000   0.00000   0.00000
           Y4           0.00000   0.00000   0.00000   0.00000   0.00000
           Z4           0.00000   0.00000   0.00000   0.00000   0.00000
                          Z2        X3        Y3        Z3        X4
           Z2           1.00000
           X3           0.00000   0.00430
           Y3           0.00000  -0.00515   0.00616
           Z3           0.00000  -0.00228   0.00272   0.00121
           X4           0.00000  -0.00430   0.00515   0.00228   0.00430
           Y4           0.00000   0.00515  -0.00616  -0.00272  -0.00515
           Z4           0.00000   0.00228  -0.00272  -0.00121  -0.00228
                          Y4        Z4
           Y4           0.00616
           Z4           0.00272   0.00121
 ITU=  0
     Eigenvalues ---    0.02333   0.06115   0.50000   0.71796   0.92342
     Eigenvalues ---    1.00000
 Quadratic step=4.920D-01 exceeds max=3.000D-01 adjusted using Lamda=-1.495D-02.
 Angle between NR and scaled steps=   0.80 degrees.
 Angle between quadratic step and forces=  41.77 degrees.
 Linear search not attempted -- first point.
 B after Tr=     0.000000    0.000000    0.000000
         Rot=    1.000000   -0.000000    0.000000   -0.000000 Ang=   0.00 deg.
 Variable       Old X    -DE/DX   Delta X   Delta X   Delta X     New X
                                 (Linear)    (Quad)   (Total)
    X1       -0.00000  -0.00658   0.00000  -0.00645  -0.00645  -0.00645
    Y1        0.00000  -0.00027   0.00000  -0.00022  -0.00022  -0.00022
    Z1       -0.00000  -0.00358   0.00000  -0.00305  -0.00305  -0.00305
    X2       -6.73602   0.00669   0.00000   0.00661   0.00661  -6.72941
    Y2        0.00000   0.00004   0.00000   0.00018   0.00018   0.00018
    Z2       -4.62972   0.00450   0.00000   0.00493   0.00493  -4.62478
    X3        0.00000   0.00486   0.00000   0.12829   0.12829   0.12829
    Y3        0.00000  -0.00577   0.00000  -0.15389  -0.15389  -0.15389
    Z3       10.86703  -0.00313   0.00000  -0.07007  -0.07007  10.79696
    X4        4.47329  -0.00496   0.00000  -0.12845  -0.12845   4.34484
    Y4       -5.35108   0.00600   0.00000   0.15393   0.15393  -5.19715
    Z4        8.49963   0.00222   0.00000   0.06818   0.06818   8.56781
         Item               Value     Threshold  Converged?
 Maximum Force            0.006688     0.000450     NO 
 RMS     Force            0.004595     0.000300     NO 
 Maximum Displacement     0.153931     0.001800     NO 
 RMS     Displacement     0.086608     0.001200     NO 
 Predicted change in Energy=-2.453259D-03
 GradGradGradGradGradGradGradGradGradGradGradGradGradGradGradGradGradGrad

 Leave Link  103 at Mon Aug 28 10:18:24 2023, MaxMem=  1610612736 cpu:               0.1 elap:               0.0
 (Enter /home/sekinelabo/g16/l9999.exe)
 1\1\GINC-SEKINELABO-XA7R-R37\Force\RB3LYP\6-311+G(d)\Na4\SEKINELABO\28
 -Aug-2023\0\\#p B3LYP/6-311+g(d) force\\\0,1\Na,0.,0.,0.\Na,-3.5645467
 054,0.,-2.4499410344\Na,0.,0.,5.7505826593\Na,2.3671647513,-2.83166925
 01,4.4978101125\\Version=ES64L-G16RevB.01\State=1-A\HF=-649.1787831\RM
 SD=6.836e-09\RMSF=4.595e-03\Dipole=0.2585005,-0.136228,0.6415588\Quadr
 upole=3.0324338,-0.6432731,-2.3891607,-4.5665277,1.0821523,2.5779723\P
 G=C01 [X(Na4)]\\@


 THE ENLIGHTENED ONE, BECAUSE HE SAW MANKIND DROWNING  
 IN THE GREAT SEA OF BIRTH, DEATH, AND SORROW, LONGED TO SAVE 
 THEM, FOR THIS HE WAS MOVED TO PITY.                         
 BECAUSE HE SAW MEN OF THE WORLD STRAYING IN FALSE PATHS, AND 
 NONE TO GUIDE THEM, FOR THIS HE WAS MOVED TO PITY.           
                     ..................                       
 BECAUSE HE SAW THE MEN OF THE WORLD PLOUGHING THEIR FIELDS,  
 SOWING THE SEED, TRAFFICKING, HUCKSTERING, BUYING, SELLING,  
 AND AT THE END WINNOWING NOTHING BUT BITTERNESS,             
 FOR THIS HE WAS MOVED TO PITY......                   
                   BUDAH'S PITY - UPSAKA SILA SUTRA           
 Job cpu time:       0 days  0 hours  0 minutes 31.9 seconds.
 Elapsed time:       0 days  0 hours  0 minutes  2.2 seconds.
 File lengths (MBytes):  RWF=     10 Int=      0 D2E=      0 Chk=      2 Scr=      1
 Normal termination of Gaussian 16 at Mon Aug 28 10:18:24 2023.
