 Initial command:
 /home/sekinelabo/g16/l1.exe "/home/sekinelabo/g16temp/Gau-20140.inp" -scrdir="/home/sekinelabo/g16temp/"
 Entering Link 1 = /home/sekinelabo/g16/l1.exe PID=     20626.
  
 Copyright (c) 1988-2017, Gaussian, Inc.  All Rights Reserved.
  
 This is part of the Gaussian(R) 16 program.  It is based on
 the Gaussian(R) 09 system (copyright 2009, Gaussian, Inc.),
 the Gaussian(R) 03 system (copyright 2003, Gaussian, Inc.),
 the Gaussian(R) 98 system (copyright 1998, Gaussian, Inc.),
 the Gaussian(R) 94 system (copyright 1995, Gaussian, Inc.),
 the Gaussian 92(TM) system (copyright 1992, Gaussian, Inc.),
 the Gaussian 90(TM) system (copyright 1990, Gaussian, Inc.),
 the Gaussian 88(TM) system (copyright 1988, Gaussian, Inc.),
 the Gaussian 86(TM) system (copyright 1986, Carnegie Mellon
 University), and the Gaussian 82(TM) system (copyright 1983,
 Carnegie Mellon University). Gaussian is a federally registered
 trademark of Gaussian, Inc.
  
 This software contains proprietary and confidential information,
 including trade secrets, belonging to Gaussian, Inc.
  
 This software is provided under written license and may be
 used, copied, transmitted, or stored only in accord with that
 written license.
  
 The following legend is applicable only to US Government
 contracts under FAR:
  
                    RESTRICTED RIGHTS LEGEND
  
 Use, reproduction and disclosure by the US Government is
 subject to restrictions as set forth in subparagraphs (a)
 and (c) of the Commercial Computer Software - Restricted
 Rights clause in FAR 52.227-19.
  
 Gaussian, Inc.
 340 Quinnipiac St., Bldg. 40, Wallingford CT 06492
  
  
 ---------------------------------------------------------------
 Warning -- This program may not be used in any manner that
 competes with the business of Gaussian, Inc. or will provide
 assistance to any competitor of Gaussian, Inc.  The licensee
 of this program is prohibited from giving any competitor of
 Gaussian, Inc. access to this program.  By using this program,
 the user acknowledges that Gaussian, Inc. is engaged in the
 business of creating and licensing software in the field of
 computational chemistry and represents and warrants to the
 licensee that it is not a competitor of Gaussian, Inc. and that
 it will not use this program in any manner prohibited above.
 ---------------------------------------------------------------
  

 Cite this work as:
 Gaussian 16, Revision B.01,
 M. J. Frisch, G. W. Trucks, H. B. Schlegel, G. E. Scuseria, 
 M. A. Robb, J. R. Cheeseman, G. Scalmani, V. Barone, 
 G. A. Petersson, H. Nakatsuji, X. Li, M. Caricato, A. V. Marenich, 
 J. Bloino, B. G. Janesko, R. Gomperts, B. Mennucci, H. P. Hratchian, 
 J. V. Ortiz, A. F. Izmaylov, J. L. Sonnenberg, D. Williams-Young, 
 F. Ding, F. Lipparini, F. Egidi, J. Goings, B. Peng, A. Petrone, 
 T. Henderson, D. Ranasinghe, V. G. Zakrzewski, J. Gao, N. Rega, 
 G. Zheng, W. Liang, M. Hada, M. Ehara, K. Toyota, R. Fukuda, 
 J. Hasegawa, M. Ishida, T. Nakajima, Y. Honda, O. Kitao, H. Nakai, 
 T. Vreven, K. Throssell, J. A. Montgomery, Jr., J. E. Peralta, 
 F. Ogliaro, M. J. Bearpark, J. J. Heyd, E. N. Brothers, K. N. Kudin, 
 V. N. Staroverov, T. A. Keith, R. Kobayashi, J. Normand, 
 K. Raghavachari, A. P. Rendell, J. C. Burant, S. S. Iyengar, 
 J. Tomasi, M. Cossi, J. M. Millam, M. Klene, C. Adamo, R. Cammi, 
 J. W. Ochterski, R. L. Martin, K. Morokuma, O. Farkas, 
 J. B. Foresman, and D. J. Fox, Gaussian, Inc., Wallingford CT, 2016.
 
 ******************************************
 Gaussian 16:  ES64L-G16RevB.01 20-Dec-2017
                23-Aug-2023 
 ******************************************
 %NProcShared=16
 Will use up to   16 processors via shared memory.
 %mem=12GB
 %Chk=checkpoint.chk
 -------------------------
 #p B3LYP/6-311+g(d) force
 -------------------------
 1/10=7,30=1,38=1/1,3;
 2/12=2,17=6,18=5,40=1/2;
 3/5=4,6=6,7=11,11=2,25=1,30=1,71=1,74=-5/1,2,3;
 4//1;
 5/5=2,38=5/2;
 6/7=2,8=2,9=2,10=2,28=1/1;
 7/29=1/1,2,3,16;
 1/10=7,30=1/3;
 99//99;
 Leave Link    1 at Wed Aug 23 10:07:43 2023, MaxMem=  1610612736 cpu:               0.2 elap:               0.0
 (Enter /home/sekinelabo/g16/l101.exe)


 Symbolic Z-matrix:
 Charge =  0 Multiplicity = 1
 Na                    0.        0.        0. 
 Na                   -2.85832   0.        0.9115 
 Na                    0.        0.        2.62156 
 Na                   -0.26627  -3.29099   1.81722 
 
 ITRead=  0  0  0  0
 MicOpt= -1 -1 -1 -1
 NAtoms=      4 NQM=        4 NQMF=       0 NMMI=      0 NMMIF=      0
                NMic=       0 NMicF=      0.
                    Isotopes and Nuclear Properties:
 (Nuclear quadrupole moments (NQMom) in fm**2, nuclear magnetic moments (NMagM)
  in nuclear magnetons)

  Atom         1           2           3           4
 IAtWgt=          23          23          23          23
 AtmWgt=  22.9897697  22.9897697  22.9897697  22.9897697
 NucSpn=           3           3           3           3
 AtZEff=  -0.0000000  -0.0000000  -0.0000000  -0.0000000
 NQMom=   10.4000000  10.4000000  10.4000000  10.4000000
 NMagM=    2.2175200   2.2175200   2.2175200   2.2175200
 AtZNuc=  11.0000000  11.0000000  11.0000000  11.0000000
 Leave Link  101 at Wed Aug 23 10:07:43 2023, MaxMem=  1610612736 cpu:               1.5 elap:               0.1
 (Enter /home/sekinelabo/g16/l103.exe)

 GradGradGradGradGradGradGradGradGradGradGradGradGradGradGradGradGradGrad
 Berny optimization.
 Initialization pass.
 Trust Radius=3.00D-01 FncErr=1.00D-07 GrdErr=1.00D-07 EigMax=2.50D+02 EigMin=1.00D-04
 Number of steps in this run=      2 maximum allowed number of steps=      2.
 GradGradGradGradGradGradGradGradGradGradGradGradGradGradGradGradGradGrad

 Leave Link  103 at Wed Aug 23 10:07:43 2023, MaxMem=  1610612736 cpu:               0.1 elap:               0.0
 (Enter /home/sekinelabo/g16/l202.exe)
                          Input orientation:                          
 ---------------------------------------------------------------------
 Center     Atomic      Atomic             Coordinates (Angstroms)
 Number     Number       Type             X           Y           Z
 ---------------------------------------------------------------------
      1         11           0        0.000000    0.000000    0.000000
      2         11           0       -2.858317    0.000000    0.911501
      3         11           0        0.000000    0.000000    2.621557
      4         11           0       -0.266272   -3.290994    1.817223
 ---------------------------------------------------------------------
                    Distance matrix (angstroms):
                    1          2          3          4
     1  Na   0.000000
     2  Na   3.000135   0.000000
     3  Na   2.621557   3.330806   0.000000
     4  Na   3.768798   4.285985   3.398307   0.000000
 Stoichiometry    Na4
 Framework group  C1[X(Na4)]
 Deg. of freedom     6
 Full point group                 C1      NOp   1
 Largest Abelian subgroup         C1      NOp   1
 Largest concise Abelian subgroup C1      NOp   1
                         Standard orientation:                         
 ---------------------------------------------------------------------
 Center     Atomic      Atomic             Coordinates (Angstroms)
 Number     Number       Type             X           Y           Z
 ---------------------------------------------------------------------
      1         11           0       -0.747612   -0.931758    1.284175
      2         11           0       -1.766102    1.400403   -0.304697
      3         11           0        0.072422   -1.232977   -1.187541
      4         11           0        2.441292    0.764331    0.208063
 ---------------------------------------------------------------------
 Rotational constants (GHZ):           2.7041670           1.7122310           1.5080532
 Leave Link  202 at Wed Aug 23 10:07:43 2023, MaxMem=  1610612736 cpu:               0.0 elap:               0.0
 (Enter /home/sekinelabo/g16/l301.exe)
 Standard basis: 6-311+G(d) (5D, 7F)
 Ernie: Thresh=  0.10000D-02 Tol=  0.10000D-05 Strict=F.
 There are   124 symmetry adapted cartesian basis functions of A   symmetry.
 There are   120 symmetry adapted basis functions of A   symmetry.
   120 basis functions,   200 primitive gaussians,   124 cartesian basis functions
    22 alpha electrons       22 beta electrons
       nuclear repulsion energy       115.7617802730 Hartrees.
 IExCor=  402 DFT=T Ex+Corr=B3LYP ExCW=0 ScaHFX=  0.200000
 ScaDFX=  0.800000  0.720000  1.000000  0.810000 ScalE2=  1.000000  1.000000
 IRadAn=      5 IRanWt=     -1 IRanGd=            0 ICorTp=0 IEmpDi=  4
 NAtoms=    4 NActive=    4 NUniq=    4 SFac= 1.00D+00 NAtFMM=   60 NAOKFM=F Big=F
 Integral buffers will be    131072 words long.
 Raffenetti 2 integral format.
 Two-electron integral symmetry is turned on.
 Leave Link  301 at Wed Aug 23 10:07:43 2023, MaxMem=  1610612736 cpu:               0.3 elap:               0.0
 (Enter /home/sekinelabo/g16/l302.exe)
 NPDir=0 NMtPBC=     1 NCelOv=     1 NCel=       1 NClECP=     1 NCelD=      1
         NCelK=      1 NCelE2=     1 NClLst=     1 CellRange=     0.0.
 One-electron integrals computed using PRISM.
 One-electron integral symmetry used in STVInt
 NBasis=   120 RedAO= T EigKep=  1.20D-05  NBF=   120
 NBsUse=   120 1.00D-06 EigRej= -1.00D+00 NBFU=   120
 Precomputing XC quadrature grid using
 IXCGrd= 4 IRadAn=           5 IRanWt=          -1 IRanGd=           0 AccXCQ= 0.00D+00.
 Generated NRdTot=       0 NPtTot=           0 NUsed=           0 NTot=          32
 NSgBfM=   118   118   118   118   118 MxSgAt=     4 MxSgA2=     4.
 Leave Link  302 at Wed Aug 23 10:07:43 2023, MaxMem=  1610612736 cpu:               1.3 elap:               0.1
 (Enter /home/sekinelabo/g16/l303.exe)
 DipDrv:  MaxL=1.
 Leave Link  303 at Wed Aug 23 10:07:43 2023, MaxMem=  1610612736 cpu:               0.3 elap:               0.0
 (Enter /home/sekinelabo/g16/l401.exe)
 ExpMin= 7.60D-03 ExpMax= 3.62D+04 ExpMxC= 1.21D+03 IAcc=3 IRadAn=         5 AccDes= 0.00D+00
 Harris functional with IExCor=  402 and IRadAn=       5 diagonalized for initial guess.
 HarFok:  IExCor=  402 AccDes= 0.00D+00 IRadAn=         5 IDoV= 1 UseB2=F ITyADJ=14
 ICtDFT=  3500011 ScaDFX=  1.000000  1.000000  1.000000  1.000000
 FoFCou: FMM=F IPFlag=           0 FMFlag=      100000 FMFlg1=           0
         NFxFlg=           0 DoJE=T BraDBF=F KetDBF=T FulRan=T
         wScrn=  0.000000 ICntrl=       500 IOpCl=  0 I1Cent=   200000004 NGrid=           0
         NMat0=    1 NMatS0=      1 NMatT0=    0 NMatD0=    1 NMtDS0=    0 NMtDT0=    0
 Petite list used in FoFCou.
 Harris En= -649.053811804636    
 JPrj=0 DoOrth=F DoCkMO=F.
 Leave Link  401 at Wed Aug 23 10:07:44 2023, MaxMem=  1610612736 cpu:               2.1 elap:               0.1
 (Enter /home/sekinelabo/g16/l502.exe)
 Keep R1 ints in memory in canonical form, NReq=41581770.
 FoFCou: FMM=F IPFlag=           0 FMFlag=           0 FMFlg1=           0
         NFxFlg=           0 DoJE=F BraDBF=F KetDBF=F FulRan=T
         wScrn=  0.000000 ICntrl=       600 IOpCl=  0 I1Cent=           0 NGrid=           0
         NMat0=    1 NMatS0=   7260 NMatT0=    0 NMatD0=    1 NMtDS0=    0 NMtDT0=    0
 Symmetry not used in FoFCou.
 Two-electron integral symmetry not used.
 Closed shell SCF:
 Using DIIS extrapolation, IDIIS=  1040.
 NGot=  1610612736 LenX=  1584221372 LenY=  1584205555
 Requested convergence on RMS density matrix=1.00D-08 within 128 cycles.
 Requested convergence on MAX density matrix=1.00D-06.
 Requested convergence on             energy=1.00D-06.
 No special actions if energy rises.

 Cycle   1  Pass 1  IDiag  1:
 E= -649.162938062564    
 DIIS: error= 1.13D-02 at cycle   1 NSaved=   1.
 NSaved= 1 IEnMin= 1 EnMin= -649.162938062564     IErMin= 1 ErrMin= 1.13D-02
 ErrMax= 1.13D-02  0.00D+00 EMaxC= 1.00D-01 BMatC= 2.69D-02 BMatP= 2.69D-02
 IDIUse=3 WtCom= 8.87D-01 WtEn= 1.13D-01
 Coeff-Com:  0.100D+01
 Coeff-En:   0.100D+01
 Coeff:      0.100D+01
 Gap=     0.023 Goal=   None    Shift=    0.000
 GapD=    0.023 DampG=0.250 DampE=0.500 DampFc=0.2500 IDamp=-1.
 Damping current iteration by 2.50D-01
 RMSDP=4.81D-03 MaxDP=2.03D-01              OVMax= 1.83D-01

 Cycle   2  Pass 1  IDiag  1:
 E= -649.168252169084     Delta-E=       -0.005314106520 Rises=F Damp=T
 DIIS: error= 7.79D-03 at cycle   2 NSaved=   2.
 NSaved= 2 IEnMin= 2 EnMin= -649.168252169084     IErMin= 2 ErrMin= 7.79D-03
 ErrMax= 7.79D-03  0.00D+00 EMaxC= 1.00D-01 BMatC= 1.05D-02 BMatP= 2.69D-02
 IDIUse=3 WtCom= 9.22D-01 WtEn= 7.79D-02
 Coeff-Com: -0.133D+01 0.233D+01
 Coeff-En:   0.000D+00 0.100D+01
 Coeff:     -0.123D+01 0.223D+01
 Gap=     0.029 Goal=   None    Shift=    0.000
 RMSDP=2.74D-03 MaxDP=8.16D-02 DE=-5.31D-03 OVMax= 1.15D-01

 Cycle   3  Pass 1  IDiag  1:
 E= -649.179015318844     Delta-E=       -0.010763149760 Rises=F Damp=F
 DIIS: error= 9.81D-04 at cycle   3 NSaved=   3.
 NSaved= 3 IEnMin= 3 EnMin= -649.179015318844     IErMin= 3 ErrMin= 9.81D-04
 ErrMax= 9.81D-04  0.00D+00 EMaxC= 1.00D-01 BMatC= 8.07D-05 BMatP= 1.05D-02
 IDIUse=3 WtCom= 9.90D-01 WtEn= 9.81D-03
 Coeff-Com: -0.700D-01 0.122D+00 0.948D+00
 Coeff-En:   0.000D+00 0.000D+00 0.100D+01
 Coeff:     -0.694D-01 0.120D+00 0.949D+00
 Gap=     0.029 Goal=   None    Shift=    0.000
 RMSDP=9.30D-04 MaxDP=4.17D-02 DE=-1.08D-02 OVMax= 7.07D-02

 Cycle   4  Pass 1  IDiag  1:
 E= -649.178819967720     Delta-E=        0.000195351124 Rises=F Damp=F
 DIIS: error= 9.99D-04 at cycle   4 NSaved=   4.
 NSaved= 4 IEnMin= 3 EnMin= -649.179015318844     IErMin= 3 ErrMin= 9.81D-04
 ErrMax= 9.99D-04  0.00D+00 EMaxC= 1.00D-01 BMatC= 1.24D-04 BMatP= 8.07D-05
 IDIUse=3 WtCom= 2.40D-01 WtEn= 7.60D-01
 Coeff-Com:  0.321D-02-0.314D-02 0.554D+00 0.446D+00
 Coeff-En:   0.000D+00 0.000D+00 0.601D+00 0.399D+00
 Coeff:      0.772D-03-0.756D-03 0.590D+00 0.410D+00
 Gap=     0.030 Goal=   None    Shift=    0.000
 RMSDP=4.80D-04 MaxDP=2.06D-02 DE= 1.95D-04 OVMax= 3.71D-02

 Cycle   5  Pass 1  IDiag  1:
 E= -649.179340590483     Delta-E=       -0.000520622763 Rises=F Damp=F
 DIIS: error= 1.08D-04 at cycle   5 NSaved=   5.
 NSaved= 5 IEnMin= 5 EnMin= -649.179340590483     IErMin= 5 ErrMin= 1.08D-04
 ErrMax= 1.08D-04  0.00D+00 EMaxC= 1.00D-01 BMatC= 6.72D-07 BMatP= 8.07D-05
 IDIUse=3 WtCom= 9.99D-01 WtEn= 1.08D-03
 Coeff-Com: -0.231D-02 0.264D-02 0.919D-01 0.186D-01 0.889D+00
 Coeff-En:   0.000D+00 0.000D+00 0.000D+00 0.000D+00 0.100D+01
 Coeff:     -0.231D-02 0.263D-02 0.918D-01 0.186D-01 0.889D+00
 Gap=     0.030 Goal=   None    Shift=    0.000
 RMSDP=9.61D-05 MaxDP=2.56D-03 DE=-5.21D-04 OVMax= 3.55D-03

 Cycle   6  Pass 1  IDiag  1:
 E= -649.179343726609     Delta-E=       -0.000003136126 Rises=F Damp=F
 DIIS: error= 2.75D-05 at cycle   6 NSaved=   6.
 NSaved= 6 IEnMin= 6 EnMin= -649.179343726609     IErMin= 6 ErrMin= 2.75D-05
 ErrMax= 2.75D-05  0.00D+00 EMaxC= 1.00D-01 BMatC= 5.72D-08 BMatP= 6.72D-07
 IDIUse=1 WtCom= 1.00D+00 WtEn= 0.00D+00
 Coeff-Com: -0.237D-02 0.293D-02 0.829D-03-0.155D-01 0.312D+00 0.703D+00
 Coeff:     -0.237D-02 0.293D-02 0.829D-03-0.155D-01 0.312D+00 0.703D+00
 Gap=     0.030 Goal=   None    Shift=    0.000
 RMSDP=1.70D-05 MaxDP=4.76D-04 DE=-3.14D-06 OVMax= 9.11D-04

 Cycle   7  Pass 1  IDiag  1:
 E= -649.179343976484     Delta-E=       -0.000000249874 Rises=F Damp=F
 DIIS: error= 5.01D-06 at cycle   7 NSaved=   7.
 NSaved= 7 IEnMin= 7 EnMin= -649.179343976484     IErMin= 7 ErrMin= 5.01D-06
 ErrMax= 5.01D-06  0.00D+00 EMaxC= 1.00D-01 BMatC= 4.49D-09 BMatP= 5.72D-08
 IDIUse=1 WtCom= 1.00D+00 WtEn= 0.00D+00
 Coeff-Com: -0.412D-03 0.505D-03-0.741D-02-0.695D-02 0.799D-02 0.193D+00
 Coeff-Com:  0.813D+00
 Coeff:     -0.412D-03 0.505D-03-0.741D-02-0.695D-02 0.799D-02 0.193D+00
 Coeff:      0.813D+00
 Gap=     0.030 Goal=   None    Shift=    0.000
 RMSDP=6.34D-06 MaxDP=1.98D-04 DE=-2.50D-07 OVMax= 4.25D-04

 Cycle   8  Pass 1  IDiag  1:
 E= -649.179344006851     Delta-E=       -0.000000030368 Rises=F Damp=F
 DIIS: error= 3.37D-06 at cycle   8 NSaved=   8.
 NSaved= 8 IEnMin= 8 EnMin= -649.179344006851     IErMin= 8 ErrMin= 3.37D-06
 ErrMax= 3.37D-06  0.00D+00 EMaxC= 1.00D-01 BMatC= 1.39D-09 BMatP= 4.49D-09
 IDIUse=1 WtCom= 1.00D+00 WtEn= 0.00D+00
 Coeff-Com:  0.345D-03-0.453D-03-0.299D-02-0.273D-04-0.540D-01-0.239D-01
 Coeff-Com:  0.394D+00 0.687D+00
 Coeff:      0.345D-03-0.453D-03-0.299D-02-0.273D-04-0.540D-01-0.239D-01
 Coeff:      0.394D+00 0.687D+00
 Gap=     0.030 Goal=   None    Shift=    0.000
 RMSDP=4.21D-06 MaxDP=8.02D-05 DE=-3.04D-08 OVMax= 1.97D-04

 Cycle   9  Pass 1  IDiag  1:
 E= -649.179344015514     Delta-E=       -0.000000008662 Rises=F Damp=F
 DIIS: error= 1.09D-06 at cycle   9 NSaved=   9.
 NSaved= 9 IEnMin= 9 EnMin= -649.179344015514     IErMin= 9 ErrMin= 1.09D-06
 ErrMax= 1.09D-06  0.00D+00 EMaxC= 1.00D-01 BMatC= 8.66D-11 BMatP= 1.39D-09
 IDIUse=1 WtCom= 1.00D+00 WtEn= 0.00D+00
 Coeff-Com:  0.602D-04-0.758D-04 0.940D-03 0.139D-02-0.305D-02-0.256D-01
 Coeff-Com: -0.129D+00 0.187D-01 0.114D+01
 Coeff:      0.602D-04-0.758D-04 0.940D-03 0.139D-02-0.305D-02-0.256D-01
 Coeff:     -0.129D+00 0.187D-01 0.114D+01
 Gap=     0.030 Goal=   None    Shift=    0.000
 RMSDP=3.70D-06 MaxDP=1.01D-04 DE=-8.66D-09 OVMax= 1.37D-04

 Cycle  10  Pass 1  IDiag  1:
 E= -649.179344017230     Delta-E=       -0.000000001716 Rises=F Damp=F
 DIIS: error= 3.24D-07 at cycle  10 NSaved=  10.
 NSaved=10 IEnMin=10 EnMin= -649.179344017230     IErMin=10 ErrMin= 3.24D-07
 ErrMax= 3.24D-07  0.00D+00 EMaxC= 1.00D-01 BMatC= 1.90D-11 BMatP= 8.66D-11
 IDIUse=1 WtCom= 1.00D+00 WtEn= 0.00D+00
 Coeff-Com: -0.412D-04 0.549D-04 0.806D-03 0.463D-03 0.756D-02-0.573D-02
 Coeff-Com: -0.102D+00-0.813D-01 0.444D+00 0.736D+00
 Coeff:     -0.412D-04 0.549D-04 0.806D-03 0.463D-03 0.756D-02-0.573D-02
 Coeff:     -0.102D+00-0.813D-01 0.444D+00 0.736D+00
 Gap=     0.030 Goal=   None    Shift=    0.000
 RMSDP=1.42D-06 MaxDP=4.38D-05 DE=-1.72D-09 OVMax= 3.77D-05

 Cycle  11  Pass 1  IDiag  1:
 E= -649.179344017383     Delta-E=       -0.000000000153 Rises=F Damp=F
 DIIS: error= 1.20D-07 at cycle  11 NSaved=  11.
 NSaved=11 IEnMin=11 EnMin= -649.179344017383     IErMin=11 ErrMin= 1.20D-07
 ErrMax= 1.20D-07  0.00D+00 EMaxC= 1.00D-01 BMatC= 2.28D-12 BMatP= 1.90D-11
 IDIUse=1 WtCom= 1.00D+00 WtEn= 0.00D+00
 Coeff-Com: -0.319D-04 0.416D-04 0.780D-04-0.161D-03 0.352D-02 0.265D-02
 Coeff-Com: -0.795D-02-0.304D-01-0.106D+00 0.218D+00 0.920D+00
 Coeff:     -0.319D-04 0.416D-04 0.780D-04-0.161D-03 0.352D-02 0.265D-02
 Coeff:     -0.795D-02-0.304D-01-0.106D+00 0.218D+00 0.920D+00
 Gap=     0.030 Goal=   None    Shift=    0.000
 RMSDP=7.32D-07 MaxDP=2.23D-05 DE=-1.53D-10 OVMax= 1.71D-05

 Cycle  12  Pass 1  IDiag  1:
 E= -649.179344017405     Delta-E=       -0.000000000023 Rises=F Damp=F
 DIIS: error= 3.68D-08 at cycle  12 NSaved=  12.
 NSaved=12 IEnMin=12 EnMin= -649.179344017405     IErMin=12 ErrMin= 3.68D-08
 ErrMax= 3.68D-08  0.00D+00 EMaxC= 1.00D-01 BMatC= 1.14D-13 BMatP= 2.28D-12
 IDIUse=1 WtCom= 1.00D+00 WtEn= 0.00D+00
 Coeff-Com: -0.444D-05 0.574D-05-0.551D-05-0.402D-04 0.472D-03 0.635D-03
 Coeff-Com:  0.262D-02-0.276D-02-0.458D-01 0.222D-01 0.260D+00 0.762D+00
 Coeff:     -0.444D-05 0.574D-05-0.551D-05-0.402D-04 0.472D-03 0.635D-03
 Coeff:      0.262D-02-0.276D-02-0.458D-01 0.222D-01 0.260D+00 0.762D+00
 Gap=     0.030 Goal=   None    Shift=    0.000
 RMSDP=3.01D-08 MaxDP=1.09D-06 DE=-2.26D-11 OVMax= 1.49D-06

 Cycle  13  Pass 1  IDiag  1:
 E= -649.179344017407     Delta-E=       -0.000000000001 Rises=F Damp=F
 DIIS: error= 1.05D-08 at cycle  13 NSaved=  13.
 NSaved=13 IEnMin=13 EnMin= -649.179344017407     IErMin=13 ErrMin= 1.05D-08
 ErrMax= 1.05D-08  0.00D+00 EMaxC= 1.00D-01 BMatC= 1.15D-14 BMatP= 1.14D-13
 IDIUse=1 WtCom= 1.00D+00 WtEn= 0.00D+00
 Coeff-Com:  0.176D-05-0.234D-05-0.598D-05 0.297D-05-0.132D-03-0.533D-04
 Coeff-Com:  0.868D-03 0.185D-02 0.525D-02-0.140D-01-0.392D-01 0.188D+00
 Coeff-Com:  0.857D+00
 Coeff:      0.176D-05-0.234D-05-0.598D-05 0.297D-05-0.132D-03-0.533D-04
 Coeff:      0.868D-03 0.185D-02 0.525D-02-0.140D-01-0.392D-01 0.188D+00
 Coeff:      0.857D+00
 Gap=     0.030 Goal=   None    Shift=    0.000
 RMSDP=1.60D-08 MaxDP=2.96D-07 DE=-1.48D-12 OVMax= 5.97D-07

 Cycle  14  Pass 1  IDiag  1:
 E= -649.179344017407     Delta-E=        0.000000000000 Rises=F Damp=F
 DIIS: error= 3.03D-09 at cycle  14 NSaved=  14.
 NSaved=14 IEnMin=13 EnMin= -649.179344017407     IErMin=14 ErrMin= 3.03D-09
 ErrMax= 3.03D-09  0.00D+00 EMaxC= 1.00D-01 BMatC= 5.91D-16 BMatP= 1.15D-14
 IDIUse=1 WtCom= 1.00D+00 WtEn= 0.00D+00
 Coeff-Com:  0.668D-06-0.872D-06-0.129D-05 0.284D-05-0.585D-04-0.494D-04
 Coeff-Com: -0.839D-04 0.630D-03 0.352D-02-0.491D-02-0.278D-01-0.534D-03
 Coeff-Com:  0.161D+00 0.868D+00
 Coeff:      0.668D-06-0.872D-06-0.129D-05 0.284D-05-0.585D-04-0.494D-04
 Coeff:     -0.839D-04 0.630D-03 0.352D-02-0.491D-02-0.278D-01-0.534D-03
 Coeff:      0.161D+00 0.868D+00
 Gap=     0.030 Goal=   None    Shift=    0.000
 RMSDP=5.65D-09 MaxDP=1.71D-07 DE= 3.41D-13 OVMax= 1.68D-07

 SCF Done:  E(RB3LYP) =  -649.179344017     A.U. after   14 cycles
            NFock= 14  Conv=0.57D-08     -V/T= 2.0027
 KE= 6.474569887707D+02 PE=-1.790854767900D+03 EE= 3.784566548391D+02
 Leave Link  502 at Wed Aug 23 10:07:45 2023, MaxMem=  1610612736 cpu:              21.6 elap:               1.5
 (Enter /home/sekinelabo/g16/l601.exe)
 Copying SCF densities to generalized density rwf, IOpCl= 0 IROHF=0.

 **********************************************************************

            Population analysis using the SCF Density.

 **********************************************************************

 Orbital symmetries:
       Occupied  (A) (A) (A) (A) (A) (A) (A) (A) (A) (A) (A) (A)
                 (A) (A) (A) (A) (A) (A) (A) (A) (A) (A)
       Virtual   (A) (A) (A) (A) (A) (A) (A) (A) (A) (A) (A) (A)
                 (A) (A) (A) (A) (A) (A) (A) (A) (A) (A) (A) (A)
                 (A) (A) (A) (A) (A) (A) (A) (A) (A) (A) (A) (A)
                 (A) (A) (A) (A) (A) (A) (A) (A) (A) (A) (A) (A)
                 (A) (A) (A) (A) (A) (A) (A) (A) (A) (A) (A) (A)
                 (A) (A) (A) (A) (A) (A) (A) (A) (A) (A) (A) (A)
                 (A) (A) (A) (A) (A) (A) (A) (A) (A) (A) (A) (A)
                 (A) (A) (A) (A) (A) (A) (A) (A) (A) (A) (A) (A)
                 (A) (A)
 The electronic state is 1-A.
 Alpha  occ. eigenvalues --  -38.46070 -38.46020 -38.43924 -38.42294  -2.22057
 Alpha  occ. eigenvalues --   -2.21955  -2.19792  -2.18106  -1.16216  -1.15722
 Alpha  occ. eigenvalues --   -1.15620  -1.15572  -1.15461  -1.15416  -1.13478
 Alpha  occ. eigenvalues --   -1.13451  -1.13412  -1.11793  -1.11777  -1.11730
 Alpha  occ. eigenvalues --   -0.17147  -0.10032
 Alpha virt. eigenvalues --   -0.07061  -0.06267  -0.02803  -0.01952  -0.01137
 Alpha virt. eigenvalues --   -0.00893  -0.00646  -0.00512   0.00114   0.00275
 Alpha virt. eigenvalues --    0.00302   0.00863   0.01560   0.01731   0.01777
 Alpha virt. eigenvalues --    0.01822   0.01869   0.01896   0.01956   0.01979
 Alpha virt. eigenvalues --    0.02355   0.02497   0.02633   0.03054   0.03523
 Alpha virt. eigenvalues --    0.04155   0.04249   0.04536   0.04696   0.05389
 Alpha virt. eigenvalues --    0.05456   0.06608   0.07358   0.07678   0.07851
 Alpha virt. eigenvalues --    0.07990   0.10217   0.10483   0.11150   0.11372
 Alpha virt. eigenvalues --    0.11699   0.12243   0.12984   0.13057   0.15278
 Alpha virt. eigenvalues --    0.16357   0.25362   0.25842   0.26999   0.30286
 Alpha virt. eigenvalues --    0.31322   0.31596   0.33218   0.35891   0.37224
 Alpha virt. eigenvalues --    0.37963   0.39017   0.40272   0.42767   0.43150
 Alpha virt. eigenvalues --    0.43382   0.43700   0.44459   0.44922   0.45112
 Alpha virt. eigenvalues --    0.45479   0.47173   0.47646   0.48561   0.49569
 Alpha virt. eigenvalues --    0.50952   0.52285   0.54074   0.55817   0.60272
 Alpha virt. eigenvalues --    0.63200   0.71806   0.85552   2.05443   2.12685
 Alpha virt. eigenvalues --    2.13869   2.20670   4.40520   4.42620   4.43091
 Alpha virt. eigenvalues --    4.43538   4.45210   4.46017   4.47366   4.49394
 Alpha virt. eigenvalues --    4.51625   4.53851   4.65306   4.80443  96.25183
 Alpha virt. eigenvalues --   96.35202  96.36873  96.44864
          Condensed to atoms (all electrons):
               1          2          3          4
     1  Na  10.805828   0.304011  -0.212296  -0.134211
     2  Na   0.304011  10.947205   0.092772  -0.355873
     3  Na  -0.212296   0.092772  10.913355   0.229530
     4  Na  -0.134211  -0.355873   0.229530  11.485746
 Mulliken charges:
               1
     1  Na   0.236668
     2  Na   0.011885
     3  Na  -0.023361
     4  Na  -0.225192
 Sum of Mulliken charges =   0.00000
 Mulliken charges with hydrogens summed into heavy atoms:
               1
     1  Na   0.236668
     2  Na   0.011885
     3  Na  -0.023361
     4  Na  -0.225192
 Electronic spatial extent (au):  <R**2>=            790.8489
 Charge=              0.0000 electrons
 Dipole moment (field-independent basis, Debye):
    X=             -0.7806    Y=             -0.5682    Z=             -0.0689  Tot=              0.9680
 Quadrupole moment (field-independent basis, Debye-Ang):
   XX=            -58.5428   YY=            -32.2067   ZZ=            -33.9596
   XY=              2.6880   XZ=              1.1378   YZ=             -0.3389
 Traceless Quadrupole moment (field-independent basis, Debye-Ang):
   XX=            -16.9731   YY=              9.3630   ZZ=              7.6101
   XY=              2.6880   XZ=              1.1378   YZ=             -0.3389
 Octapole moment (field-independent basis, Debye-Ang**2):
  XXX=              3.0612  YYY=             -8.1226  ZZZ=              1.0717  XYY=             -9.4538
  XXY=              7.3125  XXZ=              0.9734  XZZ=             -7.4595  YZZ=            -14.8558
  YYZ=             -3.8505  XYZ=              4.2656
 Hexadecapole moment (field-independent basis, Debye-Ang**3):
 XXXX=          -1074.2361 YYYY=           -378.1869 ZZZZ=           -278.3515 XXXY=             24.3081
 XXXZ=             19.2687 YYYX=             13.0755 YYYZ=              0.5537 ZZZX=              1.9120
 ZZZY=             -1.8511 XXYY=           -237.5941 XXZZ=           -232.5766 YYZZ=           -101.1095
 XXYZ=             -5.4527 YYXZ=              1.9784 ZZXY=             10.2835
 N-N= 1.157617802730D+02 E-N=-1.790854767907D+03  KE= 6.474569887707D+02
 No NMR shielding tensors so no spin-rotation constants.
 Leave Link  601 at Wed Aug 23 10:07:45 2023, MaxMem=  1610612736 cpu:               0.9 elap:               0.1
 (Enter /home/sekinelabo/g16/l701.exe)
 ... and contract with generalized density number  0.
 Compute integral first derivatives.
 Leave Link  701 at Wed Aug 23 10:07:45 2023, MaxMem=  1610612736 cpu:               1.2 elap:               0.1
 (Enter /home/sekinelabo/g16/l702.exe)
 L702 exits ... SP integral derivatives will be done elsewhere.
 Leave Link  702 at Wed Aug 23 10:07:45 2023, MaxMem=  1610612736 cpu:               0.3 elap:               0.0
 (Enter /home/sekinelabo/g16/l703.exe)
 Integral derivatives from FoFJK, PRISM(SPDF).
 Compute integral first derivatives, UseDBF=F ICtDFT=           0.
 Calling FoFJK, ICntrl=      2127 FMM=F ISym2X=0 I1Cent= 0 IOpClX= 0 NMat=1 NMatS=1 NMatT=0.
 FoFJK:  IHMeth= 1 ICntrl=    2127 DoSepK=F KAlg= 0 I1Cent=           0 FoldK=F
 IRaf=         0 NMat=       1 IRICut=       1 DoRegI=T DoRafI=F ISym2E= 0 IDoP0=0 IntGTp=1.
 FoFCou: FMM=F IPFlag=           0 FMFlag=      100000 FMFlg1=         800
         NFxFlg=           0 DoJE=F BraDBF=F KetDBF=F FulRan=T
         wScrn=  0.000000 ICntrl=      2127 IOpCl=  0 I1Cent=           0 NGrid=           0
         NMat0=    1 NMatS0=      1 NMatT0=    0 NMatD0=    1 NMtDS0=    0 NMtDT0=    0
 Symmetry not used in FoFCou.
 Leave Link  703 at Wed Aug 23 10:07:46 2023, MaxMem=  1610612736 cpu:               6.7 elap:               0.4
 (Enter /home/sekinelabo/g16/l716.exe)
 Dipole        =-3.07113538D-01-2.23553854D-01-2.70993839D-02
 ***** Axes restored to original set *****
 -------------------------------------------------------------------
 Center     Atomic                   Forces (Hartrees/Bohr)
 Number     Number              X              Y              Z
 -------------------------------------------------------------------
      1       11           0.001631133   -0.000646161   -0.016431783
      2       11          -0.006838094    0.005515169   -0.001466809
      3       11           0.000487511   -0.003989253    0.015762751
      4       11           0.004719450   -0.000879755    0.002135840
 -------------------------------------------------------------------
 Cartesian Forces:  Max     0.016431783 RMS     0.007329364
 Z-matrix is all fixed cartesians, so copy forces.
 Force constants in Cartesian coordinates: 
                1             2             3             4             5 
      1  0.537369D-01
      2  0.630020D-02  0.318665D-01
      3 -0.182794D-01 -0.111051D-01  0.103168D+00
      4 -0.369940D-01  0.781899D-03  0.217226D-02  0.577729D-01
      5 -0.531229D-02 -0.747352D-02  0.407903D-02 -0.147032D-02  0.159935D-01
      6  0.256412D-01  0.241876D-02 -0.138359D-01  0.285688D-03 -0.205979D-02
      7 -0.121127D-01  0.265953D-03  0.125867D-01 -0.195225D-01 -0.691024D-02
      8 -0.857403D-03 -0.138412D-01  0.736405D-02  0.433242D-03 -0.608034D-02
      9 -0.959290D-02 -0.102347D-01 -0.825158D-01 -0.238153D-02 -0.377762D-02
     10 -0.463020D-02 -0.734805D-02  0.352044D-02 -0.125644D-02  0.136929D-01
     11 -0.130507D-03 -0.105518D-01 -0.338029D-03  0.255178D-03 -0.243962D-02
     12  0.223108D-02  0.189210D-01 -0.681647D-02 -0.764242D-04  0.175837D-02
                6             7             8             9            10 
      6  0.231032D-01
      7 -0.241604D-01  0.376969D-01
      8 -0.694633D-03  0.744567D-02  0.414898D-01
      9 -0.102088D-01  0.151525D-01  0.127856D-01  0.102537D+00
     10 -0.176653D-02 -0.606164D-02 -0.702151D-02 -0.317810D-02  0.119483D-01
     11  0.335665D-03 -0.801381D-03 -0.215683D-01  0.122664D-02  0.676710D-03
     12  0.941498D-03 -0.357884D-02 -0.194551D-01 -0.981235D-02  0.142419D-02
               11            12 
     11  0.345596D-01
     12 -0.122428D-02  0.156873D-01
 Leave Link  716 at Wed Aug 23 10:07:46 2023, MaxMem=  1610612736 cpu:               0.3 elap:               0.0
 (Enter /home/sekinelabo/g16/l103.exe)

 GradGradGradGradGradGradGradGradGradGradGradGradGradGradGradGradGradGrad
 Berny optimization.
 Search for a local minimum.
 Step number   1 out of a maximum of    2
 All quantities printed in internal units (Hartrees-Bohrs-Radians)
 Second derivative matrix not updated -- first step.
 The second derivative matrix:
                          X1        Y1        Z1        X2        Y2
           X1           0.05374
           Y1           0.00630   0.03187
           Z1          -0.01828  -0.01111   0.10317
           X2          -0.03699   0.00078   0.00217   0.05777
           Y2          -0.00531  -0.00747   0.00408  -0.00147   0.01599
           Z2           0.02564   0.00242  -0.01384   0.00029  -0.00206
           X3          -0.01211   0.00027   0.01259  -0.01952  -0.00691
           Y3          -0.00086  -0.01384   0.00736   0.00043  -0.00608
           Z3          -0.00959  -0.01023  -0.08252  -0.00238  -0.00378
           X4          -0.00463  -0.00735   0.00352  -0.00126   0.01369
           Y4          -0.00013  -0.01055  -0.00034   0.00026  -0.00244
           Z4           0.00223   0.01892  -0.00682  -0.00008   0.00176
                          Z2        X3        Y3        Z3        X4
           Z2           0.02310
           X3          -0.02416   0.03770
           Y3          -0.00069   0.00745   0.04149
           Z3          -0.01021   0.01515   0.01279   0.10254
           X4          -0.00177  -0.00606  -0.00702  -0.00318   0.01195
           Y4           0.00034  -0.00080  -0.02157   0.00123   0.00068
           Z4           0.00094  -0.00358  -0.01946  -0.00981   0.00142
                          Y4        Z4
           Y4           0.03456
           Z4          -0.00122   0.01569
 ITU=  0
     Eigenvalues ---    0.03377   0.05250   0.06293   0.08608   0.10774
     Eigenvalues ---    0.18654
 Quadratic step=3.202D-01 exceeds max=3.000D-01 adjusted using Lamda=-2.770D-03.
 Angle between NR and scaled steps=   1.37 degrees.
 Angle between quadratic step and forces=  40.47 degrees.
 Linear search not attempted -- first point.
 B after Tr=    -0.000000   -0.000000   -0.000000
         Rot=    1.000000    0.000000   -0.000000    0.000000 Ang=   0.00 deg.
 Variable       Old X    -DE/DX   Delta X   Delta X   Delta X     New X
                                 (Linear)    (Quad)   (Total)
    X1       -0.00000   0.00163   0.00000  -0.01440  -0.01440  -0.01440
    Y1       -0.00000  -0.00065   0.00000  -0.02522  -0.02522  -0.02522
    Z1        0.00000  -0.01643   0.00000  -0.09453  -0.09453  -0.09453
    X2       -5.40144  -0.00684   0.00000  -0.11047  -0.11047  -5.51190
    Y2       -0.00000   0.00552   0.00000   0.16387   0.16387   0.16387
    Z2        1.72249  -0.00147   0.00000  -0.04531  -0.04531   1.67718
    X3       -0.00000   0.00049   0.00000  -0.01213  -0.01213  -0.01213
    Y3       -0.00000  -0.00399   0.00000  -0.07276  -0.07276  -0.07276
    Z3        4.95403   0.01576   0.00000   0.09088   0.09088   5.04490
    X4       -0.50318   0.00472   0.00000   0.13700   0.13700  -0.36618
    Y4       -6.21908  -0.00088   0.00000  -0.06590  -0.06590  -6.28497
    Z4        3.43405   0.00214   0.00000   0.04896   0.04896   3.48301
         Item               Value     Threshold  Converged?
 Maximum Force            0.016432     0.000450     NO 
 RMS     Force            0.007329     0.000300     NO 
 Maximum Displacement     0.163874     0.001800     NO 
 RMS     Displacement     0.086649     0.001200     NO 
 Predicted change in Energy=-3.023619D-03
 GradGradGradGradGradGradGradGradGradGradGradGradGradGradGradGradGradGrad

 Leave Link  103 at Wed Aug 23 10:07:46 2023, MaxMem=  1610612736 cpu:               0.1 elap:               0.0
 (Enter /home/sekinelabo/g16/l9999.exe)
 1\1\GINC-SEKINELABO-XA7R-R37\Force\RB3LYP\6-311+G(d)\Na4\SEKINELABO\23
 -Aug-2023\0\\#p B3LYP/6-311+g(d) force\\\0,1\Na,0.,0.,0.\Na,-2.8583172
 802,0.,0.9115009113\Na,0.,0.,2.6215573544\Na,-0.2662723703,-3.29099359
 02,1.8172233612\\Version=ES64L-G16RevB.01\State=1-A\HF=-649.179344\RMS
 D=5.654e-09\RMSF=7.329e-03\Dipole=0.0436103,0.3756566,-0.0448294\Quadr
 upole=1.5559126,-4.7455171,3.1896044,8.190465,-3.6088309,5.1926782\PG=
 C01 [X(Na4)]\\@


 Sometimes the fool who rushes in gets the job done.
                                    -- Al Bernstein
 Job cpu time:       0 days  0 hours  0 minutes 37.4 seconds.
 Elapsed time:       0 days  0 hours  0 minutes  2.5 seconds.
 File lengths (MBytes):  RWF=     10 Int=      0 D2E=      0 Chk=      2 Scr=      1
 Normal termination of Gaussian 16 at Wed Aug 23 10:07:46 2023.
 Initial command:
 /home/sekinelabo/g16/l1.exe "/home/sekinelabo/g16temp/Gau-2966229.inp" -scrdir="/home/sekinelabo/g16temp/"
 Entering Link 1 = /home/sekinelabo/g16/l1.exe PID=   2966715.
  
 Copyright (c) 1988-2017, Gaussian, Inc.  All Rights Reserved.
  
 This is part of the Gaussian(R) 16 program.  It is based on
 the Gaussian(R) 09 system (copyright 2009, Gaussian, Inc.),
 the Gaussian(R) 03 system (copyright 2003, Gaussian, Inc.),
 the Gaussian(R) 98 system (copyright 1998, Gaussian, Inc.),
 the Gaussian(R) 94 system (copyright 1995, Gaussian, Inc.),
 the Gaussian 92(TM) system (copyright 1992, Gaussian, Inc.),
 the Gaussian 90(TM) system (copyright 1990, Gaussian, Inc.),
 the Gaussian 88(TM) system (copyright 1988, Gaussian, Inc.),
 the Gaussian 86(TM) system (copyright 1986, Carnegie Mellon
 University), and the Gaussian 82(TM) system (copyright 1983,
 Carnegie Mellon University). Gaussian is a federally registered
 trademark of Gaussian, Inc.
  
 This software contains proprietary and confidential information,
 including trade secrets, belonging to Gaussian, Inc.
  
 This software is provided under written license and may be
 used, copied, transmitted, or stored only in accord with that
 written license.
  
 The following legend is applicable only to US Government
 contracts under FAR:
  
                    RESTRICTED RIGHTS LEGEND
  
 Use, reproduction and disclosure by the US Government is
 subject to restrictions as set forth in subparagraphs (a)
 and (c) of the Commercial Computer Software - Restricted
 Rights clause in FAR 52.227-19.
  
 Gaussian, Inc.
 340 Quinnipiac St., Bldg. 40, Wallingford CT 06492
  
  
 ---------------------------------------------------------------
 Warning -- This program may not be used in any manner that
 competes with the business of Gaussian, Inc. or will provide
 assistance to any competitor of Gaussian, Inc.  The licensee
 of this program is prohibited from giving any competitor of
 Gaussian, Inc. access to this program.  By using this program,
 the user acknowledges that Gaussian, Inc. is engaged in the
 business of creating and licensing software in the field of
 computational chemistry and represents and warrants to the
 licensee that it is not a competitor of Gaussian, Inc. and that
 it will not use this program in any manner prohibited above.
 ---------------------------------------------------------------
  

 Cite this work as:
 Gaussian 16, Revision B.01,
 M. J. Frisch, G. W. Trucks, H. B. Schlegel, G. E. Scuseria, 
 M. A. Robb, J. R. Cheeseman, G. Scalmani, V. Barone, 
 G. A. Petersson, H. Nakatsuji, X. Li, M. Caricato, A. V. Marenich, 
 J. Bloino, B. G. Janesko, R. Gomperts, B. Mennucci, H. P. Hratchian, 
 J. V. Ortiz, A. F. Izmaylov, J. L. Sonnenberg, D. Williams-Young, 
 F. Ding, F. Lipparini, F. Egidi, J. Goings, B. Peng, A. Petrone, 
 T. Henderson, D. Ranasinghe, V. G. Zakrzewski, J. Gao, N. Rega, 
 G. Zheng, W. Liang, M. Hada, M. Ehara, K. Toyota, R. Fukuda, 
 J. Hasegawa, M. Ishida, T. Nakajima, Y. Honda, O. Kitao, H. Nakai, 
 T. Vreven, K. Throssell, J. A. Montgomery, Jr., J. E. Peralta, 
 F. Ogliaro, M. J. Bearpark, J. J. Heyd, E. N. Brothers, K. N. Kudin, 
 V. N. Staroverov, T. A. Keith, R. Kobayashi, J. Normand, 
 K. Raghavachari, A. P. Rendell, J. C. Burant, S. S. Iyengar, 
 J. Tomasi, M. Cossi, J. M. Millam, M. Klene, C. Adamo, R. Cammi, 
 J. W. Ochterski, R. L. Martin, K. Morokuma, O. Farkas, 
 J. B. Foresman, and D. J. Fox, Gaussian, Inc., Wallingford CT, 2016.
 
 ******************************************
 Gaussian 16:  ES64L-G16RevB.01 20-Dec-2017
                28-Aug-2023 
 ******************************************
 %NProcShared=16
 Will use up to   16 processors via shared memory.
 %mem=12GB
 %Chk=checkpoint.chk
 -------------------------
 #p B3LYP/6-311+g(d) force
 -------------------------
 1/10=7,30=1,38=1/1,3;
 2/12=2,17=6,18=5,40=1/2;
 3/5=4,6=6,7=11,11=2,25=1,30=1,71=1,74=-5/1,2,3;
 4//1;
 5/5=2,38=5/2;
 6/7=2,8=2,9=2,10=2,28=1/1;
 7/29=1/1,2,3,16;
 1/10=7,30=1/3;
 99//99;
 Leave Link    1 at Mon Aug 28 10:18:03 2023, MaxMem=  1610612736 cpu:               0.2 elap:               0.0
 (Enter /home/sekinelabo/g16/l101.exe)


 Symbolic Z-matrix:
 Charge =  0 Multiplicity = 1
 Na                    0.        0.        0. 
 Na                   -3.02316   0.       -3.44008 
 Na                    0.        0.        2.57043 
 Na                    1.54355  -4.41375   3.79743 
 
 ITRead=  0  0  0  0
 MicOpt= -1 -1 -1 -1
 NAtoms=      4 NQM=        4 NQMF=       0 NMMI=      0 NMMIF=      0
                NMic=       0 NMicF=      0.
                    Isotopes and Nuclear Properties:
 (Nuclear quadrupole moments (NQMom) in fm**2, nuclear magnetic moments (NMagM)
  in nuclear magnetons)

  Atom         1           2           3           4
 IAtWgt=          23          23          23          23
 AtmWgt=  22.9897697  22.9897697  22.9897697  22.9897697
 NucSpn=           3           3           3           3
 AtZEff=  -0.0000000  -0.0000000  -0.0000000  -0.0000000
 NQMom=   10.4000000  10.4000000  10.4000000  10.4000000
 NMagM=    2.2175200   2.2175200   2.2175200   2.2175200
 AtZNuc=  11.0000000  11.0000000  11.0000000  11.0000000
 Leave Link  101 at Mon Aug 28 10:18:03 2023, MaxMem=  1610612736 cpu:               1.8 elap:               0.1
 (Enter /home/sekinelabo/g16/l103.exe)

 GradGradGradGradGradGradGradGradGradGradGradGradGradGradGradGradGradGrad
 Berny optimization.
 Initialization pass.
 Trust Radius=3.00D-01 FncErr=1.00D-07 GrdErr=1.00D-07 EigMax=2.50D+02 EigMin=1.00D-04
 Number of steps in this run=      2 maximum allowed number of steps=      2.
 GradGradGradGradGradGradGradGradGradGradGradGradGradGradGradGradGradGrad

 Leave Link  103 at Mon Aug 28 10:18:03 2023, MaxMem=  1610612736 cpu:               0.2 elap:               0.0
 (Enter /home/sekinelabo/g16/l202.exe)
                          Input orientation:                          
 ---------------------------------------------------------------------
 Center     Atomic      Atomic             Coordinates (Angstroms)
 Number     Number       Type             X           Y           Z
 ---------------------------------------------------------------------
      1         11           0        0.000000    0.000000    0.000000
      2         11           0       -3.023164    0.000000   -3.440084
      3         11           0        0.000000    0.000000    2.570434
      4         11           0        1.543550   -4.413753    3.797430
 ---------------------------------------------------------------------
                    Distance matrix (angstroms):
                    1          2          3          4
     1  Na   0.000000
     2  Na   4.579705   0.000000
     3  Na   2.570434   6.727989   0.000000
     4  Na   6.023640   9.629003   4.834179   0.000000
 Stoichiometry    Na4
 Framework group  C1[X(Na4)]
 Deg. of freedom     6
 Full point group                 C1      NOp   1
 Largest Abelian subgroup         C1      NOp   1
 Largest concise Abelian subgroup C1      NOp   1
                         Standard orientation:                         
 ---------------------------------------------------------------------
 Center     Atomic      Atomic             Coordinates (Angstroms)
 Number     Number       Type             X           Y           Z
 ---------------------------------------------------------------------
      1         11           0        0.872433    0.754395    0.748262
      2         11           0        4.938854   -1.098225   -0.254594
      3         11           0       -1.130670    1.795845   -0.480594
      4         11           0       -4.680616   -1.452015   -0.013075
 ---------------------------------------------------------------------
 Rotational constants (GHZ):           2.7601048           0.4468421           0.3964531
 Leave Link  202 at Mon Aug 28 10:18:04 2023, MaxMem=  1610612736 cpu:               0.0 elap:               0.0
 (Enter /home/sekinelabo/g16/l301.exe)
 Standard basis: 6-311+G(d) (5D, 7F)
 Ernie: Thresh=  0.10000D-02 Tol=  0.10000D-05 Strict=F.
 There are   124 symmetry adapted cartesian basis functions of A   symmetry.
 There are   120 symmetry adapted basis functions of A   symmetry.
   120 basis functions,   200 primitive gaussians,   124 cartesian basis functions
    22 alpha electrons       22 beta electrons
       nuclear repulsion energy        78.9337068306 Hartrees.
 IExCor=  402 DFT=T Ex+Corr=B3LYP ExCW=0 ScaHFX=  0.200000
 ScaDFX=  0.800000  0.720000  1.000000  0.810000 ScalE2=  1.000000  1.000000
 IRadAn=      5 IRanWt=     -1 IRanGd=            0 ICorTp=0 IEmpDi=  4
 NAtoms=    4 NActive=    4 NUniq=    4 SFac= 1.00D+00 NAtFMM=   60 NAOKFM=F Big=F
 Integral buffers will be    131072 words long.
 Raffenetti 2 integral format.
 Two-electron integral symmetry is turned on.
 Leave Link  301 at Mon Aug 28 10:18:04 2023, MaxMem=  1610612736 cpu:               0.4 elap:               0.0
 (Enter /home/sekinelabo/g16/l302.exe)
 NPDir=0 NMtPBC=     1 NCelOv=     1 NCel=       1 NClECP=     1 NCelD=      1
         NCelK=      1 NCelE2=     1 NClLst=     1 CellRange=     0.0.
 One-electron integrals computed using PRISM.
 One-electron integral symmetry used in STVInt
 NBasis=   120 RedAO= T EigKep=  2.34D-05  NBF=   120
 NBsUse=   120 1.00D-06 EigRej= -1.00D+00 NBFU=   120
 Precomputing XC quadrature grid using
 IXCGrd= 4 IRadAn=           5 IRanWt=          -1 IRanGd=           0 AccXCQ= 0.00D+00.
 Generated NRdTot=       0 NPtTot=           0 NUsed=           0 NTot=          32
 NSgBfM=   111   111   111   111   111 MxSgAt=     4 MxSgA2=     4.
 Leave Link  302 at Mon Aug 28 10:18:04 2023, MaxMem=  1610612736 cpu:               1.4 elap:               0.1
 (Enter /home/sekinelabo/g16/l303.exe)
 DipDrv:  MaxL=1.
 Leave Link  303 at Mon Aug 28 10:18:04 2023, MaxMem=  1610612736 cpu:               0.3 elap:               0.0
 (Enter /home/sekinelabo/g16/l401.exe)
 ExpMin= 7.60D-03 ExpMax= 3.62D+04 ExpMxC= 1.21D+03 IAcc=3 IRadAn=         5 AccDes= 0.00D+00
 Harris functional with IExCor=  402 and IRadAn=       5 diagonalized for initial guess.
 HarFok:  IExCor=  402 AccDes= 0.00D+00 IRadAn=         5 IDoV= 1 UseB2=F ITyADJ=14
 ICtDFT=  3500011 ScaDFX=  1.000000  1.000000  1.000000  1.000000
 FoFCou: FMM=F IPFlag=           0 FMFlag=      100000 FMFlg1=           0
         NFxFlg=           0 DoJE=T BraDBF=F KetDBF=T FulRan=T
         wScrn=  0.000000 ICntrl=       500 IOpCl=  0 I1Cent=   200000004 NGrid=           0
         NMat0=    1 NMatS0=      1 NMatT0=    0 NMatD0=    1 NMtDS0=    0 NMtDT0=    0
 Petite list used in FoFCou.
 Harris En= -649.038903259408    
 JPrj=0 DoOrth=F DoCkMO=F.
 Leave Link  401 at Mon Aug 28 10:18:04 2023, MaxMem=  1610612736 cpu:               1.9 elap:               0.1
 (Enter /home/sekinelabo/g16/l502.exe)
 Keep R1 ints in memory in canonical form, NReq=41581754.
 FoFCou: FMM=F IPFlag=           0 FMFlag=           0 FMFlg1=           0
         NFxFlg=           0 DoJE=F BraDBF=F KetDBF=F FulRan=T
         wScrn=  0.000000 ICntrl=       600 IOpCl=  0 I1Cent=           0 NGrid=           0
         NMat0=    1 NMatS0=   7260 NMatT0=    0 NMatD0=    1 NMtDS0=    0 NMtDT0=    0
 Symmetry not used in FoFCou.
 Two-electron integral symmetry not used.
 Closed shell SCF:
 Using DIIS extrapolation, IDIIS=  1040.
 NGot=  1610612736 LenX=  1584221388 LenY=  1584205571
 Requested convergence on RMS density matrix=1.00D-08 within 128 cycles.
 Requested convergence on MAX density matrix=1.00D-06.
 Requested convergence on             energy=1.00D-06.
 No special actions if energy rises.

 Cycle   1  Pass 1  IDiag  1:
 E= -649.143633502665    
 DIIS: error= 1.38D-02 at cycle   1 NSaved=   1.
 NSaved= 1 IEnMin= 1 EnMin= -649.143633502665     IErMin= 1 ErrMin= 1.38D-02
 ErrMax= 1.38D-02  0.00D+00 EMaxC= 1.00D-01 BMatC= 2.74D-02 BMatP= 2.74D-02
 IDIUse=3 WtCom= 8.62D-01 WtEn= 1.38D-01
 Coeff-Com:  0.100D+01
 Coeff-En:   0.100D+01
 Coeff:      0.100D+01
 Gap=     0.008 Goal=   None    Shift=    0.000
 GapD=    0.008 DampG=0.250 DampE=0.500 DampFc=0.2500 IDamp=-1.
 Damping current iteration by 2.50D-01
 RMSDP=8.45D-03 MaxDP=4.41D-01              OVMax= 5.16D-01

 Cycle   2  Pass 1  IDiag  1:
 E= -649.148372461517     Delta-E=       -0.004738958853 Rises=F Damp=T
 DIIS: error= 9.36D-03 at cycle   2 NSaved=   2.
 NSaved= 2 IEnMin= 2 EnMin= -649.148372461517     IErMin= 2 ErrMin= 9.36D-03
 ErrMax= 9.36D-03  0.00D+00 EMaxC= 1.00D-01 BMatC= 1.03D-02 BMatP= 2.74D-02
 IDIUse=3 WtCom= 9.06D-01 WtEn= 9.36D-02
 Coeff-Com: -0.924D+00 0.192D+01
 Coeff-En:   0.282D+00 0.718D+00
 Coeff:     -0.811D+00 0.181D+01
 Gap=    -0.014 Goal=   None    Shift=    0.000
 RMSDP=8.03D-03 MaxDP=4.13D-01 DE=-4.74D-03 OVMax= 7.58D-01

 Cycle   3  Pass 1  IDiag  1:
 E= -649.019993357974     Delta-E=        0.128379103543 Rises=F Damp=F
 DIIS: error= 1.20D-02 at cycle   3 NSaved=   3.
 NSaved= 3 IEnMin= 2 EnMin= -649.148372461517     IErMin= 2 ErrMin= 9.36D-03
 ErrMax= 1.20D-02  0.00D+00 EMaxC= 1.00D-01 BMatC= 1.10D-02 BMatP= 1.03D-02
 IDIUse=3 WtCom= 8.80D-01 WtEn= 1.20D-01
 Rare condition: small coef for last iteration:  0.000D+00
 Coeff-Com: -0.642D+00 0.127D+01 0.370D+00
 Coeff-En:   0.194D+00 0.773D+00 0.328D-01
 Coeff:     -0.642D+00 0.127D+01 0.370D+00
 Gap=     0.024 Goal=   None    Shift=    0.000
 RMSDP=1.06D-02 MaxDP=6.13D-01 DE= 1.28D-01 OVMax= 9.01D-01

 Cycle   4  Pass 1  IDiag  1:
 E= -649.062366762225     Delta-E=       -0.042373404251 Rises=F Damp=F
 DIIS: error= 1.28D-02 at cycle   4 NSaved=   4.
 NSaved= 4 IEnMin= 2 EnMin= -649.148372461517     IErMin= 2 ErrMin= 9.36D-03
 ErrMax= 1.28D-02  0.00D+00 EMaxC= 1.00D-01 BMatC= 7.81D-03 BMatP= 1.03D-02
 IDIUse=3 WtCom= 8.72D-01 WtEn= 1.28D-01
 EnCoef did   100 forward-backward iterations
 Coeff-Com: -0.177D+00 0.469D+00 0.369D+00 0.339D+00
 Coeff-En:   0.783D+00 0.374D-03 0.807D-02 0.209D+00
 Coeff:     -0.542D-01 0.409D+00 0.323D+00 0.322D+00
 Gap=     0.008 Goal=   None    Shift=    0.000
 RMSDP=5.86D-03 MaxDP=2.96D-01 DE=-4.24D-02 OVMax= 5.44D-01

 Cycle   5  Pass 1  IDiag  1:
 E= -649.162300759155     Delta-E=       -0.099933996931 Rises=F Damp=F
 DIIS: error= 1.17D-03 at cycle   5 NSaved=   5.
 NSaved= 5 IEnMin= 5 EnMin= -649.162300759155     IErMin= 5 ErrMin= 1.17D-03
 ErrMax= 1.17D-03  0.00D+00 EMaxC= 1.00D-01 BMatC= 2.78D-04 BMatP= 7.81D-03
 IDIUse=3 WtCom= 9.88D-01 WtEn= 1.17D-02
 Coeff-Com:  0.152D+00-0.161D+00-0.891D-02 0.998D-01 0.918D+00
 Coeff-En:   0.000D+00 0.000D+00 0.000D+00 0.000D+00 0.100D+01
 Coeff:      0.150D+00-0.159D+00-0.881D-02 0.986D-01 0.919D+00
 Gap=     0.021 Goal=   None    Shift=    0.000
 RMSDP=1.44D-03 MaxDP=3.91D-02 DE=-9.99D-02 OVMax= 4.46D-02

 Cycle   6  Pass 1  IDiag  1:
 E= -649.162756355207     Delta-E=       -0.000455596052 Rises=F Damp=F
 DIIS: error= 8.62D-04 at cycle   6 NSaved=   6.
 NSaved= 6 IEnMin= 6 EnMin= -649.162756355207     IErMin= 6 ErrMin= 8.62D-04
 ErrMax= 8.62D-04  0.00D+00 EMaxC= 1.00D-01 BMatC= 5.36D-05 BMatP= 2.78D-04
 IDIUse=3 WtCom= 9.91D-01 WtEn= 8.62D-03
 Coeff-Com: -0.136D-01 0.273D-01-0.256D-01 0.273D-01 0.172D+00 0.812D+00
 Coeff-En:   0.000D+00 0.000D+00 0.000D+00 0.000D+00 0.000D+00 0.100D+01
 Coeff:     -0.135D-01 0.270D-01-0.254D-01 0.271D-01 0.171D+00 0.814D+00
 Gap=     0.022 Goal=   None    Shift=    0.000
 RMSDP=1.10D-03 MaxDP=4.10D-02 DE=-4.56D-04 OVMax= 6.71D-02

 Cycle   7  Pass 1  IDiag  1:
 E= -649.160472368581     Delta-E=        0.002283986626 Rises=F Damp=F
 DIIS: error= 3.32D-03 at cycle   7 NSaved=   7.
 NSaved= 7 IEnMin= 6 EnMin= -649.162756355207     IErMin= 6 ErrMin= 8.62D-04
 ErrMax= 3.32D-03  0.00D+00 EMaxC= 1.00D-01 BMatC= 3.10D-04 BMatP= 5.36D-05
 IDIUse=3 WtCom= 9.91D-01 WtEn= 8.62D-03
 Rare condition: small coef for last iteration:  0.000D+00
 Coeff-Com: -0.683D-01 0.102D+00-0.276D-01 0.314D-01 0.121D-01 0.696D+00
 Coeff-Com:  0.254D+00
 Coeff-En:   0.000D+00 0.000D+00 0.000D+00 0.744D-01 0.000D+00 0.000D+00
 Coeff-En:   0.926D+00
 Coeff:     -0.683D-01 0.102D+00-0.276D-01 0.314D-01 0.121D-01 0.696D+00
 Coeff:      0.254D+00
 Gap=     0.022 Goal=   None    Shift=    0.000
 RMSDP=9.02D-05 MaxDP=3.34D-03 DE= 2.28D-03 OVMax= 6.76D-03

 Cycle   8  Pass 1  IDiag  1:
 E= -649.160410436433     Delta-E=        0.000061932148 Rises=F Damp=F
 DIIS: error= 3.41D-03 at cycle   8 NSaved=   8.
 NSaved= 8 IEnMin= 6 EnMin= -649.162756355207     IErMin= 6 ErrMin= 8.62D-04
 ErrMax= 3.41D-03  0.00D+00 EMaxC= 1.00D-01 BMatC= 3.13D-04 BMatP= 5.36D-05
 IDIUse=3 WtCom= 9.91D-01 WtEn= 8.62D-03
 EnCoef did   100 forward-backward iterations
 Coeff-Com:  0.628D-02-0.361D-03-0.245D-01 0.213D-01 0.196D+00 0.872D+00
 Coeff-Com:  0.138D+01-0.145D+01
 Coeff-En:   0.000D+00 0.000D+00 0.000D+00 0.762D-01 0.000D+00 0.000D+00
 Coeff-En:   0.404D+00 0.519D+00
 Coeff:      0.623D-02-0.358D-03-0.242D-01 0.218D-01 0.194D+00 0.864D+00
 Coeff:      0.137D+01-0.143D+01
 Gap=     0.022 Goal=   None    Shift=    0.000
 RMSDP=1.39D-04 MaxDP=6.34D-03 DE= 6.19D-05 OVMax= 1.10D-02

 Cycle   9  Pass 1  IDiag  1:
 E= -649.161015697298     Delta-E=       -0.000605260865 Rises=F Damp=F
 DIIS: error= 3.03D-03 at cycle   9 NSaved=   9.
 NSaved= 9 IEnMin= 6 EnMin= -649.162756355207     IErMin= 6 ErrMin= 8.62D-04
 ErrMax= 3.03D-03  0.00D+00 EMaxC= 1.00D-01 BMatC= 2.42D-04 BMatP= 5.36D-05
 IDIUse=3 WtCom= 9.91D-01 WtEn= 8.62D-03
 Coeff-Com:  0.769D-01-0.985D-01-0.110D-01 0.101D-01 0.254D+00 0.670D+00
 Coeff-Com:  0.335D+01-0.627D+01 0.302D+01
 Coeff-En:   0.000D+00 0.000D+00 0.000D+00 0.605D-01 0.000D+00 0.000D+00
 Coeff-En:   0.000D+00 0.000D+00 0.940D+00
 Coeff:      0.763D-01-0.977D-01-0.109D-01 0.106D-01 0.252D+00 0.664D+00
 Coeff:      0.332D+01-0.622D+01 0.301D+01
 Gap=     0.022 Goal=   None    Shift=    0.000
 RMSDP=3.74D-04 MaxDP=1.85D-02 DE=-6.05D-04 OVMax= 4.05D-02

 Cycle  10  Pass 1  IDiag  1:
 E= -649.162634900401     Delta-E=       -0.001619203103 Rises=F Damp=F
 DIIS: error= 1.36D-03 at cycle  10 NSaved=  10.
 NSaved=10 IEnMin= 6 EnMin= -649.162756355207     IErMin= 6 ErrMin= 8.62D-04
 ErrMax= 1.36D-03  0.00D+00 EMaxC= 1.00D-01 BMatC= 5.13D-05 BMatP= 5.36D-05
 IDIUse=3 WtCom= 9.91D-01 WtEn= 8.62D-03
 Coeff-Com:  0.489D-02-0.615D-02-0.133D-02 0.648D-02-0.241D-02 0.716D-01
 Coeff-Com:  0.114D+01-0.257D+01 0.107D+01 0.129D+01
 Coeff-En:   0.000D+00 0.000D+00 0.000D+00 0.000D+00 0.000D+00 0.926D+00
 Coeff-En:   0.000D+00 0.000D+00 0.000D+00 0.739D-01
 Coeff:      0.485D-02-0.610D-02-0.132D-02 0.642D-02-0.239D-02 0.789D-01
 Coeff:      0.113D+01-0.255D+01 0.106D+01 0.128D+01
 Gap=     0.022 Goal=   None    Shift=    0.000
 RMSDP=1.39D-04 MaxDP=6.48D-03 DE=-1.62D-03 OVMax= 1.38D-02

 Cycle  11  Pass 1  IDiag  1:
 E= -649.162920588969     Delta-E=       -0.000285688568 Rises=F Damp=F
 DIIS: error= 7.43D-04 at cycle  11 NSaved=  11.
 NSaved=11 IEnMin=11 EnMin= -649.162920588969     IErMin=11 ErrMin= 7.43D-04
 ErrMax= 7.43D-04  0.00D+00 EMaxC= 1.00D-01 BMatC= 1.55D-05 BMatP= 5.13D-05
 IDIUse=3 WtCom= 9.93D-01 WtEn= 7.43D-03
 Coeff-Com: -0.170D-01 0.226D-01 0.929D-03 0.434D-02-0.547D-01-0.594D-01
 Coeff-Com:  0.376D-01-0.230D+00-0.187D+00 0.645D+00 0.837D+00
 Coeff-En:   0.000D+00 0.000D+00 0.000D+00 0.000D+00 0.000D+00 0.000D+00
 Coeff-En:   0.000D+00 0.000D+00 0.000D+00 0.000D+00 0.100D+01
 Coeff:     -0.169D-01 0.225D-01 0.922D-03 0.431D-02-0.543D-01-0.589D-01
 Coeff:      0.373D-01-0.229D+00-0.185D+00 0.641D+00 0.838D+00
 Gap=     0.022 Goal=   None    Shift=    0.000
 RMSDP=1.07D-04 MaxDP=5.30D-03 DE=-2.86D-04 OVMax= 9.94D-03

 Cycle  12  Pass 1  IDiag  1:
 E= -649.163020835786     Delta-E=       -0.000100246817 Rises=F Damp=F
 DIIS: error= 3.26D-04 at cycle  12 NSaved=  12.
 NSaved=12 IEnMin=12 EnMin= -649.163020835786     IErMin=12 ErrMin= 3.26D-04
 ErrMax= 3.26D-04  0.00D+00 EMaxC= 1.00D-01 BMatC= 2.82D-06 BMatP= 1.55D-05
 IDIUse=3 WtCom= 9.97D-01 WtEn= 3.26D-03
 Coeff-Com: -0.464D-02 0.616D-02 0.113D-02 0.197D-02-0.168D-01-0.208D-01
 Coeff-Com: -0.273D-01 0.154D-01-0.157D+00 0.106D+00 0.222D+00 0.873D+00
 Coeff-En:   0.000D+00 0.000D+00 0.000D+00 0.000D+00 0.000D+00 0.000D+00
 Coeff-En:   0.000D+00 0.000D+00 0.000D+00 0.000D+00 0.000D+00 0.100D+01
 Coeff:     -0.462D-02 0.614D-02 0.113D-02 0.197D-02-0.168D-01-0.207D-01
 Coeff:     -0.272D-01 0.153D-01-0.156D+00 0.106D+00 0.221D+00 0.874D+00
 Gap=     0.022 Goal=   None    Shift=    0.000
 RMSDP=6.87D-05 MaxDP=3.40D-03 DE=-1.00D-04 OVMax= 6.82D-03

 Cycle  13  Pass 1  IDiag  1:
 E= -649.163044044389     Delta-E=       -0.000023208603 Rises=F Damp=F
 DIIS: error= 3.71D-05 at cycle  13 NSaved=  13.
 NSaved=13 IEnMin=13 EnMin= -649.163044044389     IErMin=13 ErrMin= 3.71D-05
 ErrMax= 3.71D-05  0.00D+00 EMaxC= 1.00D-01 BMatC= 3.96D-08 BMatP= 2.82D-06
 IDIUse=1 WtCom= 1.00D+00 WtEn= 0.00D+00
 Coeff-Com:  0.351D-03-0.472D-03 0.874D-04 0.363D-03 0.244D-04 0.472D-02
 Coeff-Com:  0.180D-01-0.274D-01-0.176D-02-0.281D-01-0.103D-01 0.149D+00
 Coeff-Com:  0.895D+00
 Coeff:      0.351D-03-0.472D-03 0.874D-04 0.363D-03 0.244D-04 0.472D-02
 Coeff:      0.180D-01-0.274D-01-0.176D-02-0.281D-01-0.103D-01 0.149D+00
 Coeff:      0.895D+00
 Gap=     0.022 Goal=   None    Shift=    0.000
 RMSDP=7.24D-06 MaxDP=2.39D-04 DE=-2.32D-05 OVMax= 3.98D-04

 Cycle  14  Pass 1  IDiag  1:
 E= -649.163044270907     Delta-E=       -0.000000226518 Rises=F Damp=F
 DIIS: error= 1.86D-05 at cycle  14 NSaved=  14.
 NSaved=14 IEnMin=14 EnMin= -649.163044270907     IErMin=14 ErrMin= 1.86D-05
 ErrMax= 1.86D-05  0.00D+00 EMaxC= 1.00D-01 BMatC= 9.55D-09 BMatP= 3.96D-08
 IDIUse=1 WtCom= 1.00D+00 WtEn= 0.00D+00
 Coeff-Com:  0.271D-03-0.357D-03 0.265D-04 0.568D-04 0.420D-03 0.359D-03
 Coeff-Com:  0.467D-02-0.739D-02 0.393D-02-0.786D-02-0.186D-01-0.586D-02
 Coeff-Com:  0.149D+00 0.881D+00
 Coeff:      0.271D-03-0.357D-03 0.265D-04 0.568D-04 0.420D-03 0.359D-03
 Coeff:      0.467D-02-0.739D-02 0.393D-02-0.786D-02-0.186D-01-0.586D-02
 Coeff:      0.149D+00 0.881D+00
 Gap=     0.022 Goal=   None    Shift=    0.000
 RMSDP=4.61D-06 MaxDP=2.21D-04 DE=-2.27D-07 OVMax= 4.44D-04

 Cycle  15  Pass 1  IDiag  1:
 E= -649.163044348248     Delta-E=       -0.000000077341 Rises=F Damp=F
 DIIS: error= 3.12D-07 at cycle  15 NSaved=  15.
 NSaved=15 IEnMin=15 EnMin= -649.163044348248     IErMin=15 ErrMin= 3.12D-07
 ErrMax= 3.12D-07  0.00D+00 EMaxC= 1.00D-01 BMatC= 8.94D-12 BMatP= 9.55D-09
 IDIUse=1 WtCom= 1.00D+00 WtEn= 0.00D+00
 Coeff-Com:  0.345D-04-0.454D-04-0.463D-05 0.297D-05 0.126D-03-0.957D-04
 Coeff-Com: -0.465D-03 0.451D-03 0.687D-03 0.344D-03-0.199D-02-0.132D-01
 Coeff-Com: -0.136D-01 0.191D+00 0.837D+00
 Coeff:      0.345D-04-0.454D-04-0.463D-05 0.297D-05 0.126D-03-0.957D-04
 Coeff:     -0.465D-03 0.451D-03 0.687D-03 0.344D-03-0.199D-02-0.132D-01
 Coeff:     -0.136D-01 0.191D+00 0.837D+00
 Gap=     0.022 Goal=   None    Shift=    0.000
 RMSDP=2.52D-07 MaxDP=1.02D-05 DE=-7.73D-08 OVMax= 1.92D-05

 Cycle  16  Pass 1  IDiag  1:
 E= -649.163044348254     Delta-E=       -0.000000000006 Rises=F Damp=F
 DIIS: error= 5.06D-07 at cycle  16 NSaved=  16.
 NSaved=16 IEnMin=16 EnMin= -649.163044348254     IErMin=15 ErrMin= 3.12D-07
 ErrMax= 5.06D-07  0.00D+00 EMaxC= 1.00D-01 BMatC= 7.08D-12 BMatP= 8.94D-12
 IDIUse=1 WtCom= 1.00D+00 WtEn= 0.00D+00
 Coeff-Com: -0.541D-05 0.700D-05 0.258D-06 0.708D-06 0.791D-05-0.637D-04
 Coeff-Com: -0.397D-03 0.647D-03-0.501D-03 0.555D-03 0.118D-02-0.145D-03
 Coeff-Com: -0.782D-02-0.573D-01 0.800D-01 0.984D+00
 Coeff:     -0.541D-05 0.700D-05 0.258D-06 0.708D-06 0.791D-05-0.637D-04
 Coeff:     -0.397D-03 0.647D-03-0.501D-03 0.555D-03 0.118D-02-0.145D-03
 Coeff:     -0.782D-02-0.573D-01 0.800D-01 0.984D+00
 Gap=     0.022 Goal=   None    Shift=    0.000
 RMSDP=1.43D-07 MaxDP=6.24D-06 DE=-6.03D-12 OVMax= 1.19D-05

 Cycle  17  Pass 1  IDiag  1:
 E= -649.163044348309     Delta-E=       -0.000000000055 Rises=F Damp=F
 DIIS: error= 1.43D-08 at cycle  17 NSaved=  17.
 NSaved=17 IEnMin=17 EnMin= -649.163044348309     IErMin=17 ErrMin= 1.43D-08
 ErrMax= 1.43D-08  0.00D+00 EMaxC= 1.00D-01 BMatC= 2.30D-14 BMatP= 7.08D-12
 IDIUse=1 WtCom= 1.00D+00 WtEn= 0.00D+00
 Coeff-Com:  0.671D-06-0.997D-06 0.110D-06 0.903D-06 0.528D-05 0.143D-05
 Coeff-Com: -0.753D-04 0.129D-03-0.147D-03 0.791D-04 0.244D-03 0.488D-03
 Coeff-Com: -0.564D-03-0.151D-01-0.332D-02 0.192D+00 0.827D+00
 Coeff:      0.671D-06-0.997D-06 0.110D-06 0.903D-06 0.528D-05 0.143D-05
 Coeff:     -0.753D-04 0.129D-03-0.147D-03 0.791D-04 0.244D-03 0.488D-03
 Coeff:     -0.564D-03-0.151D-01-0.332D-02 0.192D+00 0.827D+00
 Gap=     0.022 Goal=   None    Shift=    0.000
 RMSDP=1.73D-08 MaxDP=6.71D-07 DE=-5.53D-11 OVMax= 1.29D-06

 Cycle  18  Pass 1  IDiag  1:
 E= -649.163044348309     Delta-E=        0.000000000000 Rises=F Damp=F
 DIIS: error= 5.84D-08 at cycle  18 NSaved=  18.
 NSaved=18 IEnMin=17 EnMin= -649.163044348309     IErMin=17 ErrMin= 1.43D-08
 ErrMax= 5.84D-08  0.00D+00 EMaxC= 1.00D-01 BMatC= 8.82D-14 BMatP= 2.30D-14
 IDIUse=1 WtCom= 1.00D+00 WtEn= 0.00D+00
 Coeff-Com:  0.334D-06-0.443D-06 0.151D-06 0.385D-06-0.109D-05 0.123D-05
 Coeff-Com:  0.730D-05-0.266D-05-0.267D-04-0.123D-04-0.180D-04 0.176D-03
 Coeff-Com:  0.525D-03-0.228D-03-0.101D-01-0.449D-01 0.292D+00 0.763D+00
 Coeff:      0.334D-06-0.443D-06 0.151D-06 0.385D-06-0.109D-05 0.123D-05
 Coeff:      0.730D-05-0.266D-05-0.267D-04-0.123D-04-0.180D-04 0.176D-03
 Coeff:      0.525D-03-0.228D-03-0.101D-01-0.449D-01 0.292D+00 0.763D+00
 Gap=     0.022 Goal=   None    Shift=    0.000
 RMSDP=1.22D-08 MaxDP=5.98D-07 DE= 2.27D-13 OVMax= 1.09D-06

 Cycle  19  Pass 1  IDiag  1:
 E= -649.163044348307     Delta-E=        0.000000000002 Rises=F Damp=F
 DIIS: error= 1.08D-08 at cycle  19 NSaved=  19.
 NSaved=19 IEnMin=17 EnMin= -649.163044348309     IErMin=19 ErrMin= 1.08D-08
 ErrMax= 1.08D-08  0.00D+00 EMaxC= 1.00D-01 BMatC= 3.17D-15 BMatP= 2.30D-14
 IDIUse=1 WtCom= 1.00D+00 WtEn= 0.00D+00
 Large coefficients: NSaved= 19 BigCof=    0.00 CofMax=   10.00 Det=-2.19D-16
 Inversion failed.  Reducing to 18 matrices.
 Large coefficients: NSaved= 18 BigCof=    0.00 CofMax=   10.00 Det=-3.08D-16
 Inversion failed.  Reducing to 17 matrices.
 Large coefficients: NSaved= 17 BigCof=    0.00 CofMax=   10.00 Det=-3.95D-16
 Inversion failed.  Reducing to 16 matrices.
 Large coefficients: NSaved= 16 BigCof=    0.00 CofMax=   10.00 Det=-4.23D-16
 Inversion failed.  Reducing to 15 matrices.
 Coeff-Com:  0.453D-08 0.110D-06 0.540D-06-0.180D-05 0.285D-05-0.295D-05
 Coeff-Com: -0.387D-05-0.154D-04 0.361D-04-0.689D-04 0.650D-03-0.242D-02
 Coeff-Com: -0.278D-01-0.458D-01 0.108D+01
 Coeff:      0.453D-08 0.110D-06 0.540D-06-0.180D-05 0.285D-05-0.295D-05
 Coeff:     -0.387D-05-0.154D-04 0.361D-04-0.689D-04 0.650D-03-0.242D-02
 Coeff:     -0.278D-01-0.458D-01 0.108D+01
 Gap=     0.022 Goal=   None    Shift=    0.000
 RMSDP=2.62D-09 MaxDP=1.29D-07 DE= 1.71D-12 OVMax= 2.67D-07

 SCF Done:  E(RB3LYP) =  -649.163044348     A.U. after   19 cycles
            NFock= 19  Conv=0.26D-08     -V/T= 2.0028
 KE= 6.473182662555D+02 PE=-1.716694405548D+03 EE= 3.412793881133D+02
 Leave Link  502 at Mon Aug 28 10:18:06 2023, MaxMem=  1610612736 cpu:              26.0 elap:               1.9
 (Enter /home/sekinelabo/g16/l601.exe)
 Copying SCF densities to generalized density rwf, IOpCl= 0 IROHF=0.

 **********************************************************************

            Population analysis using the SCF Density.

 **********************************************************************

 Orbital symmetries:
       Occupied  (A) (A) (A) (A) (A) (A) (A) (A) (A) (A) (A) (A)
                 (A) (A) (A) (A) (A) (A) (A) (A) (A) (A)
       Virtual   (A) (A) (A) (A) (A) (A) (A) (A) (A) (A) (A) (A)
                 (A) (A) (A) (A) (A) (A) (A) (A) (A) (A) (A) (A)
                 (A) (A) (A) (A) (A) (A) (A) (A) (A) (A) (A) (A)
                 (A) (A) (A) (A) (A) (A) (A) (A) (A) (A) (A) (A)
                 (A) (A) (A) (A) (A) (A) (A) (A) (A) (A) (A) (A)
                 (A) (A) (A) (A) (A) (A) (A) (A) (A) (A) (A) (A)
                 (A) (A) (A) (A) (A) (A) (A) (A) (A) (A) (A) (A)
                 (A) (A) (A) (A) (A) (A) (A) (A) (A) (A) (A) (A)
                 (A) (A)
 The electronic state is 1-A.
 Alpha  occ. eigenvalues --  -38.46314 -38.45775 -38.45556 -38.45126  -2.21991
 Alpha  occ. eigenvalues --   -2.21461  -2.21413  -2.20968  -1.15668  -1.15668
 Alpha  occ. eigenvalues --   -1.15632  -1.15509  -1.15138  -1.15137  -1.15102
 Alpha  occ. eigenvalues --   -1.15020  -1.14984  -1.14577  -1.14566  -1.14478
 Alpha  occ. eigenvalues --   -0.14377  -0.11078
 Alpha virt. eigenvalues --   -0.08890  -0.04851  -0.03150  -0.03107  -0.01883
 Alpha virt. eigenvalues --   -0.01489  -0.01412  -0.00978  -0.00528  -0.00091
 Alpha virt. eigenvalues --    0.00050   0.00851   0.01024   0.01144   0.01293
 Alpha virt. eigenvalues --    0.01357   0.01613   0.01709   0.01798   0.01862
 Alpha virt. eigenvalues --    0.01993   0.02094   0.02192   0.02508   0.02585
 Alpha virt. eigenvalues --    0.03003   0.03551   0.03679   0.04201   0.05273
 Alpha virt. eigenvalues --    0.06856   0.07218   0.07400   0.07677   0.07973
 Alpha virt. eigenvalues --    0.08059   0.08133   0.08435   0.08667   0.09701
 Alpha virt. eigenvalues --    0.10547   0.10789   0.10940   0.12051   0.12359
 Alpha virt. eigenvalues --    0.16954   0.29014   0.29330   0.30735   0.30998
 Alpha virt. eigenvalues --    0.32907   0.34288   0.34313   0.34339   0.34606
 Alpha virt. eigenvalues --    0.34619   0.34650   0.35002   0.35285   0.36116
 Alpha virt. eigenvalues --    0.38046   0.39402   0.39656   0.41891   0.42145
 Alpha virt. eigenvalues --    0.42755   0.42971   0.43320   0.43623   0.44033
 Alpha virt. eigenvalues --    0.45490   0.45816   0.46642   0.47545   0.50145
 Alpha virt. eigenvalues --    0.54818   0.55712   0.87289   2.01093   2.02403
 Alpha virt. eigenvalues --    2.07319   2.09041   4.41724   4.42202   4.42741
 Alpha virt. eigenvalues --    4.43112   4.43199   4.43277   4.43635   4.44662
 Alpha virt. eigenvalues --    4.46416   4.47728   4.48673   4.79698  96.20217
 Alpha virt. eigenvalues --   96.21753  96.29750  96.29932
          Condensed to atoms (all electrons):
               1          2          3          4
     1  Na  11.345533   0.212600   0.040680  -0.185606
     2  Na   0.212600  10.907154  -0.163179  -0.041302
     3  Na   0.040680  -0.163179  10.643226   0.208564
     4  Na  -0.185606  -0.041302   0.208564  10.960572
 Mulliken charges:
               1
     1  Na  -0.413207
     2  Na   0.084726
     3  Na   0.270709
     4  Na   0.057772
 Sum of Mulliken charges =  -0.00000
 Mulliken charges with hydrogens summed into heavy atoms:
               1
     1  Na  -0.413207
     2  Na   0.084726
     3  Na   0.270709
     4  Na   0.057772
 Electronic spatial extent (au):  <R**2>=           2298.3255
 Charge=             -0.0000 electrons
 Dipole moment (field-independent basis, Debye):
    X=             -0.5497    Y=             -0.2607    Z=             -0.1705  Tot=              0.6318
 Quadrupole moment (field-independent basis, Debye-Ang):
   XX=            -34.0997   YY=            -39.1140   ZZ=            -43.2520
   XY=             -0.4704   XZ=             -0.3112   YZ=             -1.3464
 Traceless Quadrupole moment (field-independent basis, Debye-Ang):
   XX=              4.7222   YY=             -0.2921   ZZ=             -4.4301
   XY=             -0.4704   XZ=             -0.3112   YZ=             -1.3464
 Octapole moment (field-independent basis, Debye-Ang**2):
  XXX=              8.8024  YYY=             10.2647  ZZZ=              0.8804  XYY=            -12.8571
  XXY=            -36.3467  XXZ=             -7.5540  XZZ=             -0.2827  YZZ=              4.2810
  YYZ=             -4.7903  XYZ=              6.1583
 Hexadecapole moment (field-independent basis, Debye-Ang**3):
 XXXX=          -2952.3731 YYYY=           -591.3812 ZZZZ=           -234.2902 XXXY=             12.2510
 XXXZ=            -59.2765 YYYX=            -11.0845 YYYZ=            -15.2331 ZZZX=             -0.3212
 ZZZY=             -6.1209 XXYY=           -615.8802 XXZZ=           -625.5148 YYZZ=           -138.8724
 XXYZ=              3.6497 YYXZ=              3.2425 ZZXY=             -2.1893
 N-N= 7.893370683061D+01 E-N=-1.716694405505D+03  KE= 6.473182662555D+02
 No NMR shielding tensors so no spin-rotation constants.
 Leave Link  601 at Mon Aug 28 10:18:06 2023, MaxMem=  1610612736 cpu:               0.9 elap:               0.1
 (Enter /home/sekinelabo/g16/l701.exe)
 ... and contract with generalized density number  0.
 Compute integral first derivatives.
 Leave Link  701 at Mon Aug 28 10:18:06 2023, MaxMem=  1610612736 cpu:               1.4 elap:               0.1
 (Enter /home/sekinelabo/g16/l702.exe)
 L702 exits ... SP integral derivatives will be done elsewhere.
 Leave Link  702 at Mon Aug 28 10:18:06 2023, MaxMem=  1610612736 cpu:               0.4 elap:               0.0
 (Enter /home/sekinelabo/g16/l703.exe)
 Integral derivatives from FoFJK, PRISM(SPDF).
 Compute integral first derivatives, UseDBF=F ICtDFT=           0.
 Calling FoFJK, ICntrl=      2127 FMM=F ISym2X=0 I1Cent= 0 IOpClX= 0 NMat=1 NMatS=1 NMatT=0.
 FoFJK:  IHMeth= 1 ICntrl=    2127 DoSepK=F KAlg= 0 I1Cent=           0 FoldK=F
 IRaf=         0 NMat=       1 IRICut=       1 DoRegI=T DoRafI=F ISym2E= 0 IDoP0=0 IntGTp=1.
 FoFCou: FMM=F IPFlag=           0 FMFlag=      100000 FMFlg1=         800
         NFxFlg=           0 DoJE=F BraDBF=F KetDBF=F FulRan=T
         wScrn=  0.000000 ICntrl=      2127 IOpCl=  0 I1Cent=           0 NGrid=           0
         NMat0=    1 NMatS0=      1 NMatT0=    0 NMatD0=    1 NMtDS0=    0 NMtDT0=    0
 Symmetry not used in FoFCou.
 Leave Link  703 at Mon Aug 28 10:18:06 2023, MaxMem=  1610612736 cpu:               5.8 elap:               0.4
 (Enter /home/sekinelabo/g16/l716.exe)
 Dipole        =-2.16266821D-01-1.02550824D-01-6.70979375D-02
 ***** Axes restored to original set *****
 -------------------------------------------------------------------
 Center     Atomic                   Forces (Hartrees/Bohr)
 Number     Number              X              Y              Z
 -------------------------------------------------------------------
      1       11          -0.002911985   -0.000668898   -0.021154870
      2       11           0.003165641    0.000181711    0.003694550
      3       11           0.001147962   -0.003876734    0.018815611
      4       11          -0.001401618    0.004363921   -0.001355291
 -------------------------------------------------------------------
 Cartesian Forces:  Max     0.021154870 RMS     0.008531212
 Z-matrix is all fixed cartesians, so copy forces.
 Force constants in Cartesian coordinates: 
                1             2             3             4             5 
      1  0.000000D+00
      2  0.000000D+00  0.000000D+00
      3  0.000000D+00  0.000000D+00  0.798931D-01
      4  0.000000D+00  0.000000D+00  0.000000D+00  0.100000D+01
      5  0.000000D+00  0.000000D+00  0.000000D+00  0.000000D+00  0.100000D+01
      6  0.000000D+00  0.000000D+00  0.000000D+00  0.000000D+00  0.000000D+00
      7  0.000000D+00  0.000000D+00  0.000000D+00  0.000000D+00  0.000000D+00
      8  0.000000D+00  0.000000D+00  0.000000D+00  0.000000D+00  0.000000D+00
      9  0.000000D+00  0.000000D+00 -0.798931D-01  0.000000D+00  0.000000D+00
     10  0.000000D+00  0.000000D+00  0.000000D+00  0.000000D+00  0.000000D+00
     11  0.000000D+00  0.000000D+00  0.000000D+00  0.000000D+00  0.000000D+00
     12  0.000000D+00  0.000000D+00  0.000000D+00  0.000000D+00  0.000000D+00
                6             7             8             9            10 
      6  0.100000D+01
      7  0.000000D+00  0.000000D+00
      8  0.000000D+00  0.000000D+00  0.000000D+00
      9  0.000000D+00  0.000000D+00  0.000000D+00  0.798931D-01
     10  0.000000D+00  0.000000D+00  0.000000D+00  0.000000D+00  0.100000D+01
     11  0.000000D+00  0.000000D+00  0.000000D+00  0.000000D+00  0.000000D+00
     12  0.000000D+00  0.000000D+00  0.000000D+00  0.000000D+00  0.000000D+00
               11            12 
     11  0.100000D+01
     12  0.000000D+00  0.100000D+01
 Leave Link  716 at Mon Aug 28 10:18:06 2023, MaxMem=  1610612736 cpu:               0.3 elap:               0.0
 (Enter /home/sekinelabo/g16/l103.exe)

 GradGradGradGradGradGradGradGradGradGradGradGradGradGradGradGradGradGrad
 Berny optimization.
 Search for a local minimum.
 Step number   1 out of a maximum of    2
 All quantities printed in internal units (Hartrees-Bohrs-Radians)
 Second derivative matrix not updated -- first step.
 The second derivative matrix:
                          X1        Y1        Z1        X2        Y2
           X1          -0.00000
           Y1          -0.00000   0.00000
           Z1           0.00000  -0.00000   0.07989
           X2           0.00000   0.00000   0.00000   1.00000
           Y2           0.00000   0.00000   0.00000  -0.00000   1.00000
           Z2           0.00000   0.00000   0.00000   0.00000  -0.00000
           X3          -0.00000  -0.00000   0.00000   0.00000   0.00000
           Y3           0.00000  -0.00000   0.00000   0.00000   0.00000
           Z3          -0.00000   0.00000  -0.07989   0.00000   0.00000
           X4           0.00000   0.00000   0.00000   0.00000   0.00000
           Y4           0.00000   0.00000   0.00000   0.00000   0.00000
           Z4           0.00000   0.00000   0.00000   0.00000   0.00000
                          Z2        X3        Y3        Z3        X4
           Z2           1.00000
           X3           0.00000  -0.00000
           Y3           0.00000  -0.00000   0.00000
           Z3           0.00000   0.00000  -0.00000   0.07989
           X4           0.00000   0.00000   0.00000   0.00000   1.00000
           Y4           0.00000   0.00000   0.00000   0.00000  -0.00000
           Z4           0.00000   0.00000   0.00000   0.00000   0.00000
                          Y4        Z4
           Y4           1.00000
           Z4          -0.00000   1.00000
 ITU=  0
     Eigenvalues ---    0.06150   0.11208   0.15979   0.50000   0.56485
     Eigenvalues ---    1.00000
 Angle between quadratic step and forces=  16.27 degrees.
 Linear search not attempted -- first point.
 B after Tr=    -0.000000    0.000000    0.000000
         Rot=    1.000000    0.000000    0.000000    0.000000 Ang=   0.00 deg.
 Variable       Old X    -DE/DX   Delta X   Delta X   Delta X     New X
                                 (Linear)    (Quad)   (Total)
    X1       -0.00000  -0.00291   0.00000  -0.03400  -0.03400  -0.03400
    Y1        0.00000  -0.00067   0.00000   0.02461   0.02461   0.02461
    Z1       -0.00000  -0.02115   0.00000  -0.12900  -0.12900  -0.12900
    X2       -5.71295   0.00317   0.00000   0.01151   0.01151  -5.70144
    Y2        0.00000   0.00018   0.00000  -0.00289  -0.00289  -0.00289
    Z2       -6.50082   0.00369   0.00000   0.00009   0.00009  -6.50073
    X3        0.00000   0.00115   0.00000   0.02779   0.02779   0.02779
    Y3        0.00000  -0.00388   0.00000  -0.03121  -0.03121  -0.03121
    Z3        4.85742   0.01882   0.00000   0.12115   0.12115   4.97857
    X4        2.91689  -0.00140   0.00000  -0.00530  -0.00530   2.91159
    Y4       -8.34078   0.00436   0.00000   0.00949   0.00949  -8.33130
    Z4        7.17610  -0.00136   0.00000   0.00776   0.00776   7.18386
         Item               Value     Threshold  Converged?
 Maximum Force            0.021155     0.000450     NO 
 RMS     Force            0.008531     0.000300     NO 
 Maximum Displacement     0.129000     0.001800     NO 
 RMS     Displacement     0.054118     0.001200     NO 
 Predicted change in Energy=-2.659240D-03
 GradGradGradGradGradGradGradGradGradGradGradGradGradGradGradGradGradGrad

 Leave Link  103 at Mon Aug 28 10:18:06 2023, MaxMem=  1610612736 cpu:               0.2 elap:               0.0
 (Enter /home/sekinelabo/g16/l9999.exe)
 1\1\GINC-SEKINELABO-XA7R-R37\Force\RB3LYP\6-311+G(d)\Na4\SEKINELABO\28
 -Aug-2023\0\\#p B3LYP/6-311+g(d) force\\\0,1\Na,0.,0.,0.\Na,-3.0231643
 285,0.,-3.4400837662\Na,0.,0.,2.570433503\Na,1.5435502811,-4.413752935
 9,3.7974298778\\Version=ES64L-G16RevB.01\State=1-A\HF=-649.1630443\RMS
 D=2.616e-09\RMSF=8.531e-03\Dipole=0.0247984,-0.189406,0.1590615\Quadru
 pole=-1.8250982,0.0452456,1.7798525,-1.6701004,2.5505407,-0.4937394\PG
 =C01 [X(Na4)]\\@


 ASKING FOR EFFICIENCY AND ADAPTABILITY IN THE SAME PROGRAM IS LIKE
 ASKING FOR A BEAUTIFUL AND MODEST WIFE ...
 WE'LL PROBABLY HAVE TO SETTLE FOR ONE OR THE OTHER.

             -- THE PSYCHOLOGY OF COMPUTER PROGRAMMING
                GERALD M. WEINBERG
 Job cpu time:       0 days  0 hours  0 minutes 41.5 seconds.
 Elapsed time:       0 days  0 hours  0 minutes  2.9 seconds.
 File lengths (MBytes):  RWF=     10 Int=      0 D2E=      0 Chk=      2 Scr=      1
 Normal termination of Gaussian 16 at Mon Aug 28 10:18:06 2023.
