 Initial command:
 /home/sekinelabo/g16/l1.exe "/home/sekinelabo/g16temp/Gau-19052.inp" -scrdir="/home/sekinelabo/g16temp/"
 Entering Link 1 = /home/sekinelabo/g16/l1.exe PID=     21028.
  
 Copyright (c) 1988-2017, Gaussian, Inc.  All Rights Reserved.
  
 This is part of the Gaussian(R) 16 program.  It is based on
 the Gaussian(R) 09 system (copyright 2009, Gaussian, Inc.),
 the Gaussian(R) 03 system (copyright 2003, Gaussian, Inc.),
 the Gaussian(R) 98 system (copyright 1998, Gaussian, Inc.),
 the Gaussian(R) 94 system (copyright 1995, Gaussian, Inc.),
 the Gaussian 92(TM) system (copyright 1992, Gaussian, Inc.),
 the Gaussian 90(TM) system (copyright 1990, Gaussian, Inc.),
 the Gaussian 88(TM) system (copyright 1988, Gaussian, Inc.),
 the Gaussian 86(TM) system (copyright 1986, Carnegie Mellon
 University), and the Gaussian 82(TM) system (copyright 1983,
 Carnegie Mellon University). Gaussian is a federally registered
 trademark of Gaussian, Inc.
  
 This software contains proprietary and confidential information,
 including trade secrets, belonging to Gaussian, Inc.
  
 This software is provided under written license and may be
 used, copied, transmitted, or stored only in accord with that
 written license.
  
 The following legend is applicable only to US Government
 contracts under FAR:
  
                    RESTRICTED RIGHTS LEGEND
  
 Use, reproduction and disclosure by the US Government is
 subject to restrictions as set forth in subparagraphs (a)
 and (c) of the Commercial Computer Software - Restricted
 Rights clause in FAR 52.227-19.
  
 Gaussian, Inc.
 340 Quinnipiac St., Bldg. 40, Wallingford CT 06492
  
  
 ---------------------------------------------------------------
 Warning -- This program may not be used in any manner that
 competes with the business of Gaussian, Inc. or will provide
 assistance to any competitor of Gaussian, Inc.  The licensee
 of this program is prohibited from giving any competitor of
 Gaussian, Inc. access to this program.  By using this program,
 the user acknowledges that Gaussian, Inc. is engaged in the
 business of creating and licensing software in the field of
 computational chemistry and represents and warrants to the
 licensee that it is not a competitor of Gaussian, Inc. and that
 it will not use this program in any manner prohibited above.
 ---------------------------------------------------------------
  

 Cite this work as:
 Gaussian 16, Revision B.01,
 M. J. Frisch, G. W. Trucks, H. B. Schlegel, G. E. Scuseria, 
 M. A. Robb, J. R. Cheeseman, G. Scalmani, V. Barone, 
 G. A. Petersson, H. Nakatsuji, X. Li, M. Caricato, A. V. Marenich, 
 J. Bloino, B. G. Janesko, R. Gomperts, B. Mennucci, H. P. Hratchian, 
 J. V. Ortiz, A. F. Izmaylov, J. L. Sonnenberg, D. Williams-Young, 
 F. Ding, F. Lipparini, F. Egidi, J. Goings, B. Peng, A. Petrone, 
 T. Henderson, D. Ranasinghe, V. G. Zakrzewski, J. Gao, N. Rega, 
 G. Zheng, W. Liang, M. Hada, M. Ehara, K. Toyota, R. Fukuda, 
 J. Hasegawa, M. Ishida, T. Nakajima, Y. Honda, O. Kitao, H. Nakai, 
 T. Vreven, K. Throssell, J. A. Montgomery, Jr., J. E. Peralta, 
 F. Ogliaro, M. J. Bearpark, J. J. Heyd, E. N. Brothers, K. N. Kudin, 
 V. N. Staroverov, T. A. Keith, R. Kobayashi, J. Normand, 
 K. Raghavachari, A. P. Rendell, J. C. Burant, S. S. Iyengar, 
 J. Tomasi, M. Cossi, J. M. Millam, M. Klene, C. Adamo, R. Cammi, 
 J. W. Ochterski, R. L. Martin, K. Morokuma, O. Farkas, 
 J. B. Foresman, and D. J. Fox, Gaussian, Inc., Wallingford CT, 2016.
 
 ******************************************
 Gaussian 16:  ES64L-G16RevB.01 20-Dec-2017
                 8-Aug-2023 
 ******************************************
 %NProcShared=16
 Will use up to   16 processors via shared memory.
 %mem=12GB
 %Chk=checkpoint.chk
 -------------------------
 #p B3LYP/6-311+g(d) force
 -------------------------
 1/10=7,30=1,38=1/1,3;
 2/12=2,17=6,18=5,40=1/2;
 3/5=4,6=6,7=11,11=2,25=1,30=1,71=1,74=-5/1,2,3;
 4//1;
 5/5=2,38=5/2;
 6/7=2,8=2,9=2,10=2,28=1/1;
 7/29=1/1,2,3,16;
 1/10=7,30=1/3;
 99//99;
 Leave Link    1 at Tue Aug  8 11:07:26 2023, MaxMem=  1610612736 cpu:               0.2 elap:               0.0
 (Enter /home/sekinelabo/g16/l101.exe)
 ----
 Test
 ----
 Symbolic Z-matrix:
 Charge =  0 Multiplicity = 1
 Na                    0.        0.        0. 
 Na                   -3.89102   0.        3.67133 
 Na                    0.        0.        5.6832 
 Na                    3.35415  -0.69529   9.9117 
 
 ITRead=  0  0  0  0
 MicOpt= -1 -1 -1 -1
 NAtoms=      4 NQM=        4 NQMF=       0 NMMI=      0 NMMIF=      0
                NMic=       0 NMicF=      0.
                    Isotopes and Nuclear Properties:
 (Nuclear quadrupole moments (NQMom) in fm**2, nuclear magnetic moments (NMagM)
  in nuclear magnetons)

  Atom         1           2           3           4
 IAtWgt=          23          23          23          23
 AtmWgt=  22.9897697  22.9897697  22.9897697  22.9897697
 NucSpn=           3           3           3           3
 AtZEff=  -0.0000000  -0.0000000  -0.0000000  -0.0000000
 NQMom=   10.4000000  10.4000000  10.4000000  10.4000000
 NMagM=    2.2175200   2.2175200   2.2175200   2.2175200
 AtZNuc=  11.0000000  11.0000000  11.0000000  11.0000000
 Leave Link  101 at Tue Aug  8 11:07:26 2023, MaxMem=  1610612736 cpu:               1.5 elap:               0.1
 (Enter /home/sekinelabo/g16/l103.exe)

 GradGradGradGradGradGradGradGradGradGradGradGradGradGradGradGradGradGrad
 Berny optimization.
 Initialization pass.
 Trust Radius=3.00D-01 FncErr=1.00D-07 GrdErr=1.00D-07 EigMax=2.50D+02 EigMin=1.00D-04
 Number of steps in this run=      2 maximum allowed number of steps=      2.
 GradGradGradGradGradGradGradGradGradGradGradGradGradGradGradGradGradGrad

 Leave Link  103 at Tue Aug  8 11:07:26 2023, MaxMem=  1610612736 cpu:               0.2 elap:               0.0
 (Enter /home/sekinelabo/g16/l202.exe)
                          Input orientation:                          
 ---------------------------------------------------------------------
 Center     Atomic      Atomic             Coordinates (Angstroms)
 Number     Number       Type             X           Y           Z
 ---------------------------------------------------------------------
      1         11           0        0.000000    0.000000    0.000000
      2         11           0       -3.891016    0.000000    3.671327
      3         11           0        0.000000    0.000000    5.683200
      4         11           0        3.354146   -0.695287    9.911696
 ---------------------------------------------------------------------
                    Distance matrix (angstroms):
                    1          2          3          4
     1  Na   0.000000
     2  Na   5.349640   0.000000
     3  Na   5.683200   4.380370   0.000000
     4  Na  10.486918   9.587388   5.441866   0.000000
 Stoichiometry    Na4
 Framework group  C1[X(Na4)]
 Deg. of freedom     6
 Full point group                 C1      NOp   1
 Largest Abelian subgroup         C1      NOp   1
 Largest concise Abelian subgroup C1      NOp   1
                         Standard orientation:                         
 ---------------------------------------------------------------------
 Center     Atomic      Atomic             Coordinates (Angstroms)
 Number     Number       Type             X           Y           Z
 ---------------------------------------------------------------------
      1         11           0        4.105985   -2.527163   -0.042099
      2         11           0        2.875997    2.678995   -0.083197
      3         11           0       -0.804049    0.322616    0.220734
      4         11           0       -6.177933   -0.474448   -0.095439
 ---------------------------------------------------------------------
 Rotational constants (GHZ):           1.5747789           0.3434254           0.2824222
 Leave Link  202 at Tue Aug  8 11:07:26 2023, MaxMem=  1610612736 cpu:               0.0 elap:               0.0
 (Enter /home/sekinelabo/g16/l301.exe)
 Standard basis: 6-311+G(d) (5D, 7F)
 Ernie: Thresh=  0.10000D-02 Tol=  0.10000D-05 Strict=F.
 There are   124 symmetry adapted cartesian basis functions of A   symmetry.
 There are   120 symmetry adapted basis functions of A   symmetry.
   120 basis functions,   200 primitive gaussians,   124 cartesian basis functions
    22 alpha electrons       22 beta electrons
       nuclear repulsion energy        62.4039435730 Hartrees.
 IExCor=  402 DFT=T Ex+Corr=B3LYP ExCW=0 ScaHFX=  0.200000
 ScaDFX=  0.800000  0.720000  1.000000  0.810000 ScalE2=  1.000000  1.000000
 IRadAn=      5 IRanWt=     -1 IRanGd=            0 ICorTp=0 IEmpDi=  4
 NAtoms=    4 NActive=    4 NUniq=    4 SFac= 1.00D+00 NAtFMM=   60 NAOKFM=F Big=F
 Integral buffers will be    131072 words long.
 Raffenetti 2 integral format.
 Two-electron integral symmetry is turned on.
 Leave Link  301 at Tue Aug  8 11:07:26 2023, MaxMem=  1610612736 cpu:               0.3 elap:               0.0
 (Enter /home/sekinelabo/g16/l302.exe)
 NPDir=0 NMtPBC=     1 NCelOv=     1 NCel=       1 NClECP=     1 NCelD=      1
         NCelK=      1 NCelE2=     1 NClLst=     1 CellRange=     0.0.
 One-electron integrals computed using PRISM.
 One-electron integral symmetry used in STVInt
 NBasis=   120 RedAO= T EigKep=  2.68D-04  NBF=   120
 NBsUse=   120 1.00D-06 EigRej= -1.00D+00 NBFU=   120
 Precomputing XC quadrature grid using
 IXCGrd= 4 IRadAn=           5 IRanWt=          -1 IRanGd=           0 AccXCQ= 0.00D+00.
 Generated NRdTot=       0 NPtTot=           0 NUsed=           0 NTot=          32
 NSgBfM=   115   115   115   115   115 MxSgAt=     4 MxSgA2=     4.
 Leave Link  302 at Tue Aug  8 11:07:26 2023, MaxMem=  1610612736 cpu:               1.3 elap:               0.1
 (Enter /home/sekinelabo/g16/l303.exe)
 DipDrv:  MaxL=1.
 Leave Link  303 at Tue Aug  8 11:07:26 2023, MaxMem=  1610612736 cpu:               0.3 elap:               0.0
 (Enter /home/sekinelabo/g16/l401.exe)
 ExpMin= 7.60D-03 ExpMax= 3.62D+04 ExpMxC= 1.21D+03 IAcc=3 IRadAn=         5 AccDes= 0.00D+00
 Harris functional with IExCor=  402 and IRadAn=       5 diagonalized for initial guess.
 HarFok:  IExCor=  402 AccDes= 0.00D+00 IRadAn=         5 IDoV= 1 UseB2=F ITyADJ=14
 ICtDFT=  3500011 ScaDFX=  1.000000  1.000000  1.000000  1.000000
 FoFCou: FMM=F IPFlag=           0 FMFlag=      100000 FMFlg1=           0
         NFxFlg=           0 DoJE=T BraDBF=F KetDBF=T FulRan=T
         wScrn=  0.000000 ICntrl=       500 IOpCl=  0 I1Cent=   200000004 NGrid=           0
         NMat0=    1 NMatS0=      1 NMatT0=    0 NMatD0=    1 NMtDS0=    0 NMtDT0=    0
 Petite list used in FoFCou.
 Harris En= -649.029894158842    
 JPrj=0 DoOrth=F DoCkMO=F.
 Leave Link  401 at Tue Aug  8 11:07:26 2023, MaxMem=  1610612736 cpu:               1.9 elap:               0.1
 (Enter /home/sekinelabo/g16/l502.exe)
 Keep R1 ints in memory in canonical form, NReq=41581754.
 FoFCou: FMM=F IPFlag=           0 FMFlag=           0 FMFlg1=           0
         NFxFlg=           0 DoJE=F BraDBF=F KetDBF=F FulRan=T
         wScrn=  0.000000 ICntrl=       600 IOpCl=  0 I1Cent=           0 NGrid=           0
         NMat0=    1 NMatS0=   7260 NMatT0=    0 NMatD0=    1 NMtDS0=    0 NMtDT0=    0
 Symmetry not used in FoFCou.
 Two-electron integral symmetry not used.
 Closed shell SCF:
 Using DIIS extrapolation, IDIIS=  1040.
 NGot=  1610612736 LenX=  1584221388 LenY=  1584205571
 Requested convergence on RMS density matrix=1.00D-08 within 128 cycles.
 Requested convergence on MAX density matrix=1.00D-06.
 Requested convergence on             energy=1.00D-06.
 No special actions if energy rises.

 Cycle   1  Pass 1  IDiag  1:
 E= -649.115826673133    
 DIIS: error= 1.83D-02 at cycle   1 NSaved=   1.
 NSaved= 1 IEnMin= 1 EnMin= -649.115826673133     IErMin= 1 ErrMin= 1.83D-02
 ErrMax= 1.83D-02  0.00D+00 EMaxC= 1.00D-01 BMatC= 2.92D-02 BMatP= 2.92D-02
 IDIUse=3 WtCom= 8.17D-01 WtEn= 1.83D-01
 Coeff-Com:  0.100D+01
 Coeff-En:   0.100D+01
 Coeff:      0.100D+01
 Gap=    -0.048 Goal=   None    Shift=    0.000
 GapD=   -0.048 DampG=0.250 DampE=0.500 DampFc=0.2500 IDamp=-1.
 Damping current iteration by 2.50D-01
 RMSDP=9.76D-03 MaxDP=6.34D-01              OVMax= 8.48D-01

 Cycle   2  Pass 1  IDiag  1:
 E= -649.133792938985     Delta-E=       -0.017966265852 Rises=F Damp=T
 DIIS: error= 1.28D-02 at cycle   2 NSaved=   2.
 NSaved= 2 IEnMin= 2 EnMin= -649.133792938985     IErMin= 2 ErrMin= 1.28D-02
 ErrMax= 1.28D-02  0.00D+00 EMaxC= 1.00D-01 BMatC= 1.02D-02 BMatP= 2.92D-02
 IDIUse=3 WtCom= 8.72D-01 WtEn= 1.28D-01
 Coeff-Com: -0.832D+00 0.183D+01
 Coeff-En:   0.107D+00 0.893D+00
 Coeff:     -0.711D+00 0.171D+01
 Gap=    -0.000 Goal=   None    Shift=    0.000
 RMSDP=5.59D-03 MaxDP=2.92D-01 DE=-1.80D-02 OVMax= 9.14D-01

 Cycle   3  Pass 1  IDiag  1:
 E= -648.985323536370     Delta-E=        0.148469402616 Rises=F Damp=F
 DIIS: error= 1.53D-02 at cycle   3 NSaved=   3.
 NSaved= 3 IEnMin= 2 EnMin= -649.133792938985     IErMin= 2 ErrMin= 1.28D-02
 ErrMax= 1.53D-02  0.00D+00 EMaxC= 1.00D-01 BMatC= 1.38D-02 BMatP= 1.02D-02
 IDIUse=2 WtCom= 0.00D+00 WtEn= 1.00D+00
 Rare condition: small coef for last iteration:  0.000D+00
 Coeff-En:   0.000D+00 0.000D+00 0.100D+01
 Coeff:      0.000D+00 0.000D+00 0.100D+01
 Gap=     0.004 Goal=   None    Shift=    0.000
 RMSDP=1.66D-02 MaxDP=1.24D+00 DE= 1.48D-01 OVMax= 9.10D-01

 Cycle   4  Pass 1  IDiag  1:
 E= -648.779670933590     Delta-E=        0.205652602780 Rises=F Damp=F
 DIIS: error= 1.38D-02 at cycle   4 NSaved=   4.
 NSaved= 4 IEnMin= 2 EnMin= -649.133792938985     IErMin= 2 ErrMin= 1.28D-02
 ErrMax= 1.38D-02  0.00D+00 EMaxC= 1.00D-01 BMatC= 3.45D-02 BMatP= 1.02D-02
 IDIUse=2 WtCom= 0.00D+00 WtEn= 1.00D+00
 Coeff-En:   0.000D+00 0.000D+00 0.625D+00 0.375D+00
 Coeff:      0.000D+00 0.000D+00 0.625D+00 0.375D+00
 Gap=     0.071 Goal=   None    Shift=    0.000
 RMSDP=1.09D-02 MaxDP=7.02D-01 DE= 2.06D-01 OVMax= 4.92D-01

 Cycle   5  Pass 1  IDiag  1:
 E= -648.997500527503     Delta-E=       -0.217829593913 Rises=F Damp=F
 DIIS: error= 1.05D-02 at cycle   5 NSaved=   5.
 NSaved= 5 IEnMin= 2 EnMin= -649.133792938985     IErMin= 5 ErrMin= 1.05D-02
 ErrMax= 1.05D-02  0.00D+00 EMaxC= 1.00D-01 BMatC= 5.57D-03 BMatP= 1.02D-02
 IDIUse=3 WtCom= 8.95D-01 WtEn= 1.05D-01
 EnCoef did   100 forward-backward iterations
 Coeff-Com: -0.345D+00 0.704D+00 0.316D+00 0.169D-01 0.309D+00
 Coeff-En:   0.719D+00 0.473D-03 0.723D-02 0.000D+00 0.273D+00
 Coeff:     -0.233D+00 0.629D+00 0.283D+00 0.151D-01 0.305D+00
 Gap=    -0.013 Goal=   None    Shift=    0.000
 RMSDP=9.10D-03 MaxDP=5.25D-01 DE=-2.18D-01 OVMax= 9.21D-01

 Cycle   6  Pass 1  IDiag  1:
 E= -649.063466062497     Delta-E=       -0.065965534994 Rises=F Damp=F
 DIIS: error= 7.82D-03 at cycle   6 NSaved=   6.
 NSaved= 6 IEnMin= 2 EnMin= -649.133792938985     IErMin= 6 ErrMin= 7.82D-03
 ErrMax= 7.82D-03  0.00D+00 EMaxC= 1.00D-01 BMatC= 5.13D-03 BMatP= 5.57D-03
 IDIUse=3 WtCom= 9.22D-01 WtEn= 7.82D-02
 EnCoef did   100 forward-backward iterations
 Coeff-Com: -0.366D+00 0.675D+00 0.243D-01-0.199D-01 0.250D+00 0.436D+00
 Coeff-En:   0.552D+00 0.218D-03 0.334D-02 0.000D+00 0.306D+00 0.139D+00
 Coeff:     -0.294D+00 0.622D+00 0.226D-01-0.183D-01 0.254D+00 0.413D+00
 Gap=     0.009 Goal=   None    Shift=    0.000
 RMSDP=4.31D-03 MaxDP=2.37D-01 DE=-6.60D-02 OVMax= 4.34D-01

 Cycle   7  Pass 1  IDiag  1:
 E= -649.141082963600     Delta-E=       -0.077616901103 Rises=F Damp=F
 DIIS: error= 5.52D-03 at cycle   7 NSaved=   7.
 NSaved= 7 IEnMin= 7 EnMin= -649.141082963600     IErMin= 7 ErrMin= 5.52D-03
 ErrMax= 5.52D-03  0.00D+00 EMaxC= 1.00D-01 BMatC= 1.16D-03 BMatP= 5.13D-03
 IDIUse=3 WtCom= 9.45D-01 WtEn= 5.52D-02
 Coeff-Com: -0.259D+00 0.422D+00-0.148D+00-0.356D-01 0.127D+00 0.213D+00
 Coeff-Com:  0.681D+00
 Coeff-En:   0.000D+00 0.000D+00 0.000D+00 0.000D+00 0.132D+00 0.000D+00
 Coeff-En:   0.868D+00
 Coeff:     -0.245D+00 0.399D+00-0.140D+00-0.336D-01 0.127D+00 0.201D+00
 Coeff:      0.691D+00
 Gap=     0.016 Goal=   None    Shift=    0.000
 RMSDP=1.17D-03 MaxDP=6.50D-02 DE=-7.76D-02 OVMax= 1.13D-01

 Cycle   8  Pass 1  IDiag  1:
 E= -649.146971891744     Delta-E=       -0.005888928144 Rises=F Damp=F
 DIIS: error= 3.63D-03 at cycle   8 NSaved=   8.
 NSaved= 8 IEnMin= 8 EnMin= -649.146971891744     IErMin= 8 ErrMin= 3.63D-03
 ErrMax= 3.63D-03  0.00D+00 EMaxC= 1.00D-01 BMatC= 5.66D-04 BMatP= 1.16D-03
 IDIUse=3 WtCom= 9.64D-01 WtEn= 3.63D-02
 Coeff-Com: -0.206D+00 0.315D+00 0.505D-01-0.226D-01 0.102D+00-0.155D+00
 Coeff-Com:  0.669D-01 0.848D+00
 Coeff-En:   0.000D+00 0.000D+00 0.000D+00 0.000D+00 0.796D-01 0.000D+00
 Coeff-En:   0.000D+00 0.920D+00
 Coeff:     -0.198D+00 0.303D+00 0.487D-01-0.218D-01 0.102D+00-0.149D+00
 Coeff:      0.645D-01 0.851D+00
 Gap=     0.020 Goal=   None    Shift=    0.000
 RMSDP=1.23D-03 MaxDP=6.64D-02 DE=-5.89D-03 OVMax= 1.36D-01

 Cycle   9  Pass 1  IDiag  1:
 E= -649.133273083680     Delta-E=        0.013698808064 Rises=F Damp=F
 DIIS: error= 6.64D-03 at cycle   9 NSaved=   9.
 NSaved= 9 IEnMin= 8 EnMin= -649.146971891744     IErMin= 8 ErrMin= 3.63D-03
 ErrMax= 6.64D-03  0.00D+00 EMaxC= 1.00D-01 BMatC= 1.63D-03 BMatP= 5.66D-04
 IDIUse=3 WtCom= 9.64D-01 WtEn= 3.63D-02
 Rare condition: small coef for last iteration:  0.000D+00
 Coeff-Com: -0.190D+00 0.289D+00 0.232D-01-0.240D-01 0.102D+00-0.864D-01
 Coeff-Com:  0.130D+00 0.920D+00-0.166D+00
 Coeff-En:   0.000D+00 0.000D+00 0.000D+00 0.000D+00 0.210D+00 0.000D+00
 Coeff-En:   0.000D+00 0.000D+00 0.790D+00
 Coeff:     -0.190D+00 0.289D+00 0.232D-01-0.240D-01 0.102D+00-0.864D-01
 Coeff:      0.130D+00 0.920D+00-0.166D+00
 Gap=     0.021 Goal=   None    Shift=    0.000
 RMSDP=1.78D-04 MaxDP=9.26D-03 DE= 1.37D-02 OVMax= 1.55D-02

 Cycle  10  Pass 1  IDiag  1:
 E= -649.131188736936     Delta-E=        0.002084346744 Rises=F Damp=F
 DIIS: error= 6.78D-03 at cycle  10 NSaved=  10.
 NSaved=10 IEnMin= 8 EnMin= -649.146971891744     IErMin= 8 ErrMin= 3.63D-03
 ErrMax= 6.78D-03  0.00D+00 EMaxC= 1.00D-01 BMatC= 1.79D-03 BMatP= 5.66D-04
 IDIUse=3 WtCom= 9.64D-01 WtEn= 3.63D-02
 EnCoef did   100 forward-backward iterations
 Rare condition: small coef for last iteration:  0.000D+00
 Coeff-Com: -0.151D+00 0.231D+00-0.148D-01-0.201D-01 0.900D-01 0.159D-02
 Coeff-Com:  0.303D+00 0.121D+01-0.312D+01 0.247D+01
 Coeff-En:   0.000D+00 0.000D+00 0.000D+00 0.000D+00 0.221D+00 0.000D+00
 Coeff-En:   0.000D+00 0.000D+00 0.000D+00 0.779D+00
 Coeff:     -0.151D+00 0.231D+00-0.148D-01-0.201D-01 0.900D-01 0.159D-02
 Coeff:      0.303D+00 0.121D+01-0.312D+01 0.247D+01
 Gap=     0.020 Goal=   None    Shift=    0.000
 RMSDP=4.08D-04 MaxDP=1.91D-02 DE= 2.08D-03 OVMax= 3.91D-02

 Cycle  11  Pass 1  IDiag  1:
 E= -649.135497496688     Delta-E=       -0.004308759752 Rises=F Damp=F
 DIIS: error= 6.39D-03 at cycle  11 NSaved=  11.
 NSaved=11 IEnMin= 8 EnMin= -649.146971891744     IErMin= 8 ErrMin= 3.63D-03
 ErrMax= 6.39D-03  0.00D+00 EMaxC= 1.00D-01 BMatC= 1.47D-03 BMatP= 5.66D-04
 IDIUse=3 WtCom= 9.64D-01 WtEn= 3.63D-02
 EnCoef did     9 forward-backward iterations
 Coeff-Com: -0.158D+00 0.241D+00-0.117D-01-0.206D-01 0.910D-01-0.780D-02
 Coeff-Com:  0.282D+00 0.119D+01-0.222D+01 0.195D+01-0.328D+00
 Coeff-En:   0.000D+00 0.000D+00 0.000D+00 0.000D+00 0.159D+00 0.000D+00
 Coeff-En:   0.466D+00 0.000D+00 0.000D+00 0.000D+00 0.375D+00
 Coeff:     -0.153D+00 0.232D+00-0.113D-01-0.198D-01 0.935D-01-0.752D-02
 Coeff:      0.289D+00 0.115D+01-0.214D+01 0.187D+01-0.302D+00
 Gap=     0.020 Goal=   None    Shift=    0.000
 RMSDP=7.38D-05 MaxDP=3.27D-03 DE=-4.31D-03 OVMax= 8.31D-03

 Cycle  12  Pass 1  IDiag  1:
 E= -649.136601722171     Delta-E=       -0.001104225484 Rises=F Damp=F
 DIIS: error= 6.17D-03 at cycle  12 NSaved=  12.
 NSaved=12 IEnMin= 8 EnMin= -649.146971891744     IErMin= 8 ErrMin= 3.63D-03
 ErrMax= 6.17D-03  0.00D+00 EMaxC= 1.00D-01 BMatC= 1.39D-03 BMatP= 5.66D-04
 IDIUse=3 WtCom= 9.64D-01 WtEn= 3.63D-02
 Large coefficients: NSaved= 12 BigCof=   21.25 CofMax=   10.00 Det=-7.21D-08
 Inversion failed.  Reducing to 11 matrices.
 Large coefficients: NSaved= 11 BigCof=   19.04 CofMax=   10.00 Det=-7.42D-08
 Inversion failed.  Reducing to 10 matrices.
 Large coefficients: NSaved= 10 BigCof=   15.61 CofMax=   10.00 Det=-9.05D-08
 Inversion failed.  Reducing to  9 matrices.
 Large coefficients: NSaved=  9 BigCof=   11.28 CofMax=   10.00 Det=-9.58D-08
 Inversion failed.  Reducing to  8 matrices.
 EnCoef did   100 forward-backward iterations
 Coeff-Com: -0.128D+00 0.209D+00 0.357D+00 0.106D+01-0.278D+01 0.229D+01
 Coeff-Com: -0.627D+01 0.626D+01
 Coeff-En:   0.000D+00 0.183D+00 0.812D+00 0.000D+00 0.000D+00 0.000D+00
 Coeff-En:   0.000D+00 0.587D-02
 Coeff:     -0.123D+00 0.208D+00 0.374D+00 0.102D+01-0.268D+01 0.221D+01
 Coeff:     -0.605D+01 0.604D+01
 Gap=     0.014 Goal=   None    Shift=    0.000
 RMSDP=2.13D-03 MaxDP=1.06D-01 DE=-1.10D-03 OVMax= 2.50D-01

 Cycle  13  Pass 1  IDiag  1:
 E= -649.151288067434     Delta-E=       -0.014686345263 Rises=F Damp=F
 DIIS: error= 1.10D-03 at cycle  13 NSaved=   9.
 NSaved= 9 IEnMin= 9 EnMin= -649.151288067434     IErMin= 9 ErrMin= 1.10D-03
 ErrMax= 1.10D-03  0.00D+00 EMaxC= 1.00D-01 BMatC= 7.45D-05 BMatP= 5.66D-04
 IDIUse=3 WtCom= 9.89D-01 WtEn= 1.10D-02
 EnCoef did   100 forward-backward iterations
 Coeff-Com: -0.382D-01 0.503D-01-0.454D-02 0.275D+00 0.127D+01-0.771D+00
 Coeff-Com: -0.212D+01 0.168D+01 0.653D+00
 Coeff-En:   0.000D+00 0.000D+00 0.000D+00 0.210D+00 0.000D+00 0.000D+00
 Coeff-En:   0.000D+00 0.782D-03 0.789D+00
 Coeff:     -0.378D-01 0.497D-01-0.449D-02 0.274D+00 0.125D+01-0.763D+00
 Coeff:     -0.209D+01 0.167D+01 0.655D+00
 Gap=     0.018 Goal=   None    Shift=    0.000
 RMSDP=5.50D-04 MaxDP=2.75D-02 DE=-1.47D-02 OVMax= 6.27D-02

 Cycle  14  Pass 1  IDiag  1:
 E= -649.151676320335     Delta-E=       -0.000388252901 Rises=F Damp=F
 DIIS: error= 7.82D-04 at cycle  14 NSaved=  10.
 NSaved=10 IEnMin=10 EnMin= -649.151676320335     IErMin=10 ErrMin= 7.82D-04
 ErrMax= 7.82D-04  0.00D+00 EMaxC= 1.00D-01 BMatC= 2.14D-05 BMatP= 7.45D-05
 IDIUse=3 WtCom= 9.92D-01 WtEn= 7.82D-03
 Coeff-Com: -0.156D-01 0.209D-01-0.278D-01 0.487D-01 0.665D+00-0.394D+00
 Coeff-Com: -0.311D+00 0.150D-01 0.276D+00 0.723D+00
 Coeff-En:   0.000D+00 0.000D+00 0.000D+00 0.000D+00 0.000D+00 0.000D+00
 Coeff-En:   0.000D+00 0.000D+00 0.338D+00 0.662D+00
 Coeff:     -0.155D-01 0.207D-01-0.275D-01 0.483D-01 0.660D+00-0.391D+00
 Coeff:     -0.308D+00 0.149D-01 0.276D+00 0.722D+00
 Gap=     0.018 Goal=   None    Shift=    0.000
 RMSDP=1.35D-04 MaxDP=7.12D-03 DE=-3.88D-04 OVMax= 1.55D-02

 Cycle  15  Pass 1  IDiag  1:
 E= -649.151847181631     Delta-E=       -0.000170861296 Rises=F Damp=F
 DIIS: error= 2.71D-04 at cycle  15 NSaved=  11.
 NSaved=11 IEnMin=11 EnMin= -649.151847181631     IErMin=11 ErrMin= 2.71D-04
 ErrMax= 2.71D-04  0.00D+00 EMaxC= 1.00D-01 BMatC= 2.79D-06 BMatP= 2.14D-05
 IDIUse=3 WtCom= 9.97D-01 WtEn= 2.71D-03
 Coeff-Com: -0.345D-02 0.507D-02-0.172D-01 0.115D-01 0.113D-01-0.359D-01
 Coeff-Com:  0.657D+00-0.677D+00 0.162D-01-0.767D-01 0.111D+01
 Coeff-En:   0.000D+00 0.000D+00 0.000D+00 0.000D+00 0.000D+00 0.000D+00
 Coeff-En:   0.000D+00 0.000D+00 0.873D-01 0.000D+00 0.913D+00
 Coeff:     -0.344D-02 0.505D-02-0.172D-01 0.115D-01 0.112D-01-0.358D-01
 Coeff:      0.655D+00-0.675D+00 0.164D-01-0.765D-01 0.111D+01
 Gap=     0.018 Goal=   None    Shift=    0.000
 RMSDP=6.57D-05 MaxDP=3.94D-03 DE=-1.71D-04 OVMax= 7.14D-03

 Cycle  16  Pass 1  IDiag  1:
 E= -649.151872394016     Delta-E=       -0.000025212385 Rises=F Damp=F
 DIIS: error= 4.12D-05 at cycle  16 NSaved=  12.
 NSaved=12 IEnMin=12 EnMin= -649.151872394016     IErMin=12 ErrMin= 4.12D-05
 ErrMax= 4.12D-05  0.00D+00 EMaxC= 1.00D-01 BMatC= 5.77D-08 BMatP= 2.79D-06
 IDIUse=1 WtCom= 1.00D+00 WtEn= 0.00D+00
 Coeff-Com: -0.797D-03 0.110D-02-0.427D-02 0.883D-02-0.553D-01 0.280D-01
 Coeff-Com:  0.234D+00-0.221D+00 0.221D-02-0.828D-01 0.273D+00 0.817D+00
 Coeff:     -0.797D-03 0.110D-02-0.427D-02 0.883D-02-0.553D-01 0.280D-01
 Coeff:      0.234D+00-0.221D+00 0.221D-02-0.828D-01 0.273D+00 0.817D+00
 Gap=     0.018 Goal=   None    Shift=    0.000
 RMSDP=1.37D-05 MaxDP=6.35D-04 DE=-2.52D-05 OVMax= 1.50D-03

 Cycle  17  Pass 1  IDiag  1:
 E= -649.151872854763     Delta-E=       -0.000000460747 Rises=F Damp=F
 DIIS: error= 9.16D-06 at cycle  17 NSaved=  13.
 NSaved=13 IEnMin=13 EnMin= -649.151872854763     IErMin=13 ErrMin= 9.16D-06
 ErrMax= 9.16D-06  0.00D+00 EMaxC= 1.00D-01 BMatC= 6.43D-09 BMatP= 5.77D-08
 IDIUse=1 WtCom= 1.00D+00 WtEn= 0.00D+00
 Coeff-Com: -0.849D-04 0.126D-03-0.132D-02-0.657D-03 0.571D-03-0.163D-02
 Coeff-Com: -0.139D-01 0.172D-01-0.346D-03 0.197D-01-0.401D-01 0.719D-01
 Coeff-Com:  0.949D+00
 Coeff:     -0.849D-04 0.126D-03-0.132D-02-0.657D-03 0.571D-03-0.163D-02
 Coeff:     -0.139D-01 0.172D-01-0.346D-03 0.197D-01-0.401D-01 0.719D-01
 Coeff:      0.949D+00
 Gap=     0.018 Goal=   None    Shift=    0.000
 RMSDP=6.26D-06 MaxDP=2.86D-04 DE=-4.61D-07 OVMax= 6.34D-04

 Cycle  18  Pass 1  IDiag  1:
 E= -649.151872901245     Delta-E=       -0.000000046482 Rises=F Damp=F
 DIIS: error= 7.84D-06 at cycle  18 NSaved=  14.
 NSaved=14 IEnMin=14 EnMin= -649.151872901245     IErMin=14 ErrMin= 7.84D-06
 ErrMax= 7.84D-06  0.00D+00 EMaxC= 1.00D-01 BMatC= 1.73D-09 BMatP= 6.43D-09
 IDIUse=1 WtCom= 1.00D+00 WtEn= 0.00D+00
 Coeff-Com:  0.679D-04-0.849D-04-0.220D-03-0.583D-03-0.302D-02 0.166D-02
 Coeff-Com: -0.808D-02 0.104D-01-0.105D-02 0.783D-03-0.263D-01-0.361D-01
 Coeff-Com:  0.103D+00 0.960D+00
 Coeff:      0.679D-04-0.849D-04-0.220D-03-0.583D-03-0.302D-02 0.166D-02
 Coeff:     -0.808D-02 0.104D-01-0.105D-02 0.783D-03-0.263D-01-0.361D-01
 Coeff:      0.103D+00 0.960D+00
 Gap=     0.018 Goal=   None    Shift=    0.000
 RMSDP=1.92D-06 MaxDP=8.38D-05 DE=-4.65D-08 OVMax= 1.85D-04

 Cycle  19  Pass 1  IDiag  1:
 E= -649.151872918140     Delta-E=       -0.000000016895 Rises=F Damp=F
 DIIS: error= 7.64D-07 at cycle  19 NSaved=  15.
 NSaved=15 IEnMin=15 EnMin= -649.151872918140     IErMin=15 ErrMin= 7.64D-07
 ErrMax= 7.64D-07  0.00D+00 EMaxC= 1.00D-01 BMatC= 2.29D-11 BMatP= 1.73D-09
 IDIUse=1 WtCom= 1.00D+00 WtEn= 0.00D+00
 Coeff-Com: -0.127D-04 0.171D-04 0.154D-04-0.229D-04 0.451D-03-0.269D-03
 Coeff-Com: -0.457D-03 0.239D-03 0.448D-03 0.132D-02-0.221D-02-0.106D-01
 Coeff-Com: -0.197D-01-0.485D-02 0.104D+01
 Coeff:     -0.127D-04 0.171D-04 0.154D-04-0.229D-04 0.451D-03-0.269D-03
 Coeff:     -0.457D-03 0.239D-03 0.448D-03 0.132D-02-0.221D-02-0.106D-01
 Coeff:     -0.197D-01-0.485D-02 0.104D+01
 Gap=     0.018 Goal=   None    Shift=    0.000
 RMSDP=2.83D-07 MaxDP=7.11D-06 DE=-1.69D-08 OVMax= 2.52D-05

 Cycle  20  Pass 1  IDiag  1:
 E= -649.151872918209     Delta-E=       -0.000000000069 Rises=F Damp=F
 DIIS: error= 7.19D-07 at cycle  20 NSaved=  16.
 NSaved=16 IEnMin=16 EnMin= -649.151872918209     IErMin=16 ErrMin= 7.19D-07
 ErrMax= 7.19D-07  0.00D+00 EMaxC= 1.00D-01 BMatC= 1.70D-11 BMatP= 2.29D-11
 IDIUse=1 WtCom= 1.00D+00 WtEn= 0.00D+00
 Coeff-Com: -0.103D-04 0.138D-04 0.208D-05 0.764D-04 0.259D-03-0.147D-03
 Coeff-Com:  0.690D-04-0.212D-03 0.142D-03-0.269D-03-0.376D-03 0.462D-02
 Coeff-Com:  0.166D-03-0.709D-01-0.151D-01 0.108D+01
 Coeff:     -0.103D-04 0.138D-04 0.208D-05 0.764D-04 0.259D-03-0.147D-03
 Coeff:      0.690D-04-0.212D-03 0.142D-03-0.269D-03-0.376D-03 0.462D-02
 Coeff:      0.166D-03-0.709D-01-0.151D-01 0.108D+01
 Gap=     0.018 Goal=   None    Shift=    0.000
 RMSDP=1.46D-07 MaxDP=8.30D-06 DE=-6.88D-11 OVMax= 1.55D-05

 Cycle  21  Pass 1  IDiag  1:
 E= -649.151872918360     Delta-E=       -0.000000000152 Rises=F Damp=F
 DIIS: error= 1.55D-07 at cycle  21 NSaved=  17.
 NSaved=17 IEnMin=17 EnMin= -649.151872918360     IErMin=17 ErrMin= 1.55D-07
 ErrMax= 1.55D-07  0.00D+00 EMaxC= 1.00D-01 BMatC= 8.05D-13 BMatP= 1.70D-11
 IDIUse=1 WtCom= 1.00D+00 WtEn= 0.00D+00
 Coeff-Com: -0.174D-05 0.230D-05-0.475D-05 0.180D-04-0.453D-04 0.336D-04
 Coeff-Com:  0.400D-04-0.311D-04 0.957D-05-0.304D-04-0.481D-03 0.145D-02
 Coeff-Com:  0.234D-02-0.101D-01-0.342D-01 0.951D-01 0.946D+00
 Coeff:     -0.174D-05 0.230D-05-0.475D-05 0.180D-04-0.453D-04 0.336D-04
 Coeff:      0.400D-04-0.311D-04 0.957D-05-0.304D-04-0.481D-03 0.145D-02
 Coeff:      0.234D-02-0.101D-01-0.342D-01 0.951D-01 0.946D+00
 Gap=     0.018 Goal=   None    Shift=    0.000
 RMSDP=3.93D-08 MaxDP=2.38D-06 DE=-1.52D-10 OVMax= 4.33D-06

 Cycle  22  Pass 1  IDiag  1:
 E= -649.151872918365     Delta-E=       -0.000000000005 Rises=F Damp=F
 DIIS: error= 5.48D-09 at cycle  22 NSaved=  18.
 NSaved=18 IEnMin=18 EnMin= -649.151872918365     IErMin=18 ErrMin= 5.48D-09
 ErrMax= 5.48D-09  0.00D+00 EMaxC= 1.00D-01 BMatC= 1.40D-15 BMatP= 8.05D-13
 IDIUse=1 WtCom= 1.00D+00 WtEn= 0.00D+00
 Large coefficients: NSaved= 18 BigCof=    0.00 CofMax=   10.00 Det=-2.43D-15
 Inversion failed.  Reducing to 17 matrices.
 Large coefficients: NSaved= 17 BigCof=    0.00 CofMax=   10.00 Det=-2.83D-15
 Inversion failed.  Reducing to 16 matrices.
 Large coefficients: NSaved= 16 BigCof=    0.00 CofMax=   10.00 Det=-3.97D-15
 Inversion failed.  Reducing to 15 matrices.
 Coeff-Com: -0.219D-07-0.963D-06-0.490D-06 0.126D-04-0.127D-04-0.171D-06
 Coeff-Com: -0.280D-05 0.408D-04-0.108D-04-0.317D-03-0.183D-03-0.165D-02
 Coeff-Com: -0.944D-02-0.109D-03 0.101D+01
 Coeff:     -0.219D-07-0.963D-06-0.490D-06 0.126D-04-0.127D-04-0.171D-06
 Coeff:     -0.280D-05 0.408D-04-0.108D-04-0.317D-03-0.183D-03-0.165D-02
 Coeff:     -0.944D-02-0.109D-03 0.101D+01
 Gap=     0.018 Goal=   None    Shift=    0.000
 RMSDP=3.53D-09 MaxDP=9.52D-08 DE=-4.55D-12 OVMax= 2.96D-07

 SCF Done:  E(RB3LYP) =  -649.151872918     A.U. after   22 cycles
            NFock= 22  Conv=0.35D-08     -V/T= 2.0030
 KE= 6.471790577979D+02 PE=-1.683327226034D+03 EE= 3.245923517444D+02
 Leave Link  502 at Tue Aug  8 11:07:28 2023, MaxMem=  1610612736 cpu:              28.4 elap:               2.1
 (Enter /home/sekinelabo/g16/l601.exe)
 Copying SCF densities to generalized density rwf, IOpCl= 0 IROHF=0.

 **********************************************************************

            Population analysis using the SCF Density.

 **********************************************************************

 Orbital symmetries:
       Occupied  (A) (A) (A) (A) (A) (A) (A) (A) (A) (A) (A) (A)
                 (A) (A) (A) (A) (A) (A) (A) (A) (A) (A)
       Virtual   (A) (A) (A) (A) (A) (A) (A) (A) (A) (A) (A) (A)
                 (A) (A) (A) (A) (A) (A) (A) (A) (A) (A) (A) (A)
                 (A) (A) (A) (A) (A) (A) (A) (A) (A) (A) (A) (A)
                 (A) (A) (A) (A) (A) (A) (A) (A) (A) (A) (A) (A)
                 (A) (A) (A) (A) (A) (A) (A) (A) (A) (A) (A) (A)
                 (A) (A) (A) (A) (A) (A) (A) (A) (A) (A) (A) (A)
                 (A) (A) (A) (A) (A) (A) (A) (A) (A) (A) (A) (A)
                 (A) (A) (A) (A) (A) (A) (A) (A) (A) (A) (A) (A)
                 (A) (A)
 The electronic state is 1-A.
 Alpha  occ. eigenvalues --  -38.47048 -38.46679 -38.46103 -38.45303  -2.22719
 Alpha  occ. eigenvalues --   -2.22351  -2.21769  -2.20984  -1.16402  -1.16379
 Alpha  occ. eigenvalues --   -1.16356  -1.16029  -1.16028  -1.15994  -1.15465
 Alpha  occ. eigenvalues --   -1.15461  -1.15378  -1.14660  -1.14660  -1.14631
 Alpha  occ. eigenvalues --   -0.13160  -0.10700
 Alpha virt. eigenvalues --   -0.08940  -0.07162  -0.02874  -0.02844  -0.02376
 Alpha virt. eigenvalues --   -0.01983  -0.01445  -0.01090  -0.00974  -0.00472
 Alpha virt. eigenvalues --   -0.00184   0.00293   0.00440   0.00491   0.00996
 Alpha virt. eigenvalues --    0.01227   0.01357   0.01624   0.01707   0.01756
 Alpha virt. eigenvalues --    0.01813   0.01872   0.02064   0.02281   0.02374
 Alpha virt. eigenvalues --    0.02571   0.02826   0.03138   0.03217   0.03870
 Alpha virt. eigenvalues --    0.06706   0.07161   0.07611   0.07708   0.07966
 Alpha virt. eigenvalues --    0.07976   0.08391   0.08661   0.08909   0.09047
 Alpha virt. eigenvalues --    0.09065   0.09765   0.09983   0.11116   0.11554
 Alpha virt. eigenvalues --    0.12379   0.31327   0.31734   0.32191   0.33338
 Alpha virt. eigenvalues --    0.33670   0.33976   0.34039   0.34155   0.34369
 Alpha virt. eigenvalues --    0.34833   0.35014   0.35018   0.35153   0.35234
 Alpha virt. eigenvalues --    0.35345   0.35370   0.35832   0.36653   0.36931
 Alpha virt. eigenvalues --    0.39589   0.41636   0.42186   0.42722   0.42939
 Alpha virt. eigenvalues --    0.42972   0.43566   0.44022   0.44980   0.45044
 Alpha virt. eigenvalues --    0.45474   0.47828   0.49966   1.99615   2.00764
 Alpha virt. eigenvalues --    2.01885   2.04229   4.41622   4.41854   4.42110
 Alpha virt. eigenvalues --    4.42142   4.42504   4.42987   4.43403   4.43641
 Alpha virt. eigenvalues --    4.43867   4.44249   4.44775   4.47563  96.18545
 Alpha virt. eigenvalues --   96.19898  96.21052  96.23834
          Condensed to atoms (all electrons):
               1          2          3          4
     1  Na  10.949957   0.086838  -0.048765  -0.022930
     2  Na   0.086838  10.676609   0.132211  -0.013028
     3  Na  -0.048765   0.132211  10.829355   0.147389
     4  Na  -0.022930  -0.013028   0.147389  10.980650
 Mulliken charges:
               1
     1  Na   0.034901
     2  Na   0.117370
     3  Na  -0.060191
     4  Na  -0.092081
 Sum of Mulliken charges =  -0.00000
 Mulliken charges with hydrogens summed into heavy atoms:
               1
     1  Na   0.034901
     2  Na   0.117370
     3  Na  -0.060191
     4  Na  -0.092081
 Electronic spatial extent (au):  <R**2>=           3150.1478
 Charge=             -0.0000 electrons
 Dipole moment (field-independent basis, Debye):
    X=              2.5511    Y=              0.5253    Z=             -0.0317  Tot=              2.6048
 Quadrupole moment (field-independent basis, Debye-Ang):
   XX=            -40.4992   YY=            -33.3783   ZZ=            -47.1496
   XY=              4.1808   XZ=             -0.0206   YZ=             -0.4369
 Traceless Quadrupole moment (field-independent basis, Debye-Ang):
   XX=             -0.1568   YY=              6.9640   ZZ=             -6.8072
   XY=              4.1808   XZ=             -0.0206   YZ=             -0.4369
 Octapole moment (field-independent basis, Debye-Ang**2):
  XXX=              3.7536  YYY=             25.4023  ZZZ=              0.0542  XYY=             59.1193
  XXY=              5.4466  XXZ=             -4.1761  XZZ=              8.1197  YZZ=              2.3794
  YYZ=             -1.6845  XYZ=             -1.4049
 Hexadecapole moment (field-independent basis, Debye-Ang**3):
 XXXX=          -4187.5235 YYYY=           -908.7484 ZZZZ=           -227.8839 XXXY=             73.6939
 XXXZ=             15.7429 YYYX=             81.5883 YYYZ=             -6.1077 ZZZX=             -0.2586
 ZZZY=             -2.5190 XXYY=           -791.3496 XXZZ=           -836.2775 YYZZ=           -211.9367
 XXYZ=             -2.5787 YYXZ=             -4.6109 ZZXY=             10.0947
 N-N= 6.240394357303D+01 E-N=-1.683327226088D+03  KE= 6.471790577979D+02
 No NMR shielding tensors so no spin-rotation constants.
 Leave Link  601 at Tue Aug  8 11:07:28 2023, MaxMem=  1610612736 cpu:               1.0 elap:               0.1
 (Enter /home/sekinelabo/g16/l701.exe)
 ... and contract with generalized density number  0.
 Compute integral first derivatives.
 Leave Link  701 at Tue Aug  8 11:07:28 2023, MaxMem=  1610612736 cpu:               1.2 elap:               0.1
 (Enter /home/sekinelabo/g16/l702.exe)
 L702 exits ... SP integral derivatives will be done elsewhere.
 Leave Link  702 at Tue Aug  8 11:07:28 2023, MaxMem=  1610612736 cpu:               0.5 elap:               0.0
 (Enter /home/sekinelabo/g16/l703.exe)
 Integral derivatives from FoFJK, PRISM(SPDF).
 Compute integral first derivatives, UseDBF=F ICtDFT=           0.
 Calling FoFJK, ICntrl=      2127 FMM=F ISym2X=0 I1Cent= 0 IOpClX= 0 NMat=1 NMatS=1 NMatT=0.
 FoFJK:  IHMeth= 1 ICntrl=    2127 DoSepK=F KAlg= 0 I1Cent=           0 FoldK=F
 IRaf=         0 NMat=       1 IRICut=       1 DoRegI=T DoRafI=F ISym2E= 0 IDoP0=0 IntGTp=1.
 FoFCou: FMM=F IPFlag=           0 FMFlag=      100000 FMFlg1=         800
         NFxFlg=           0 DoJE=F BraDBF=F KetDBF=F FulRan=T
         wScrn=  0.000000 ICntrl=      2127 IOpCl=  0 I1Cent=           0 NGrid=           0
         NMat0=    1 NMatS0=      1 NMatT0=    0 NMatD0=    1 NMtDS0=    0 NMtDT0=    0
 Symmetry not used in FoFCou.
 Leave Link  703 at Tue Aug  8 11:07:29 2023, MaxMem=  1610612736 cpu:               5.4 elap:               0.3
 (Enter /home/sekinelabo/g16/l716.exe)
 Dipole        = 1.00367751D+00 2.06662226D-01-1.24799220D-02
 ***** Axes restored to original set *****
 -------------------------------------------------------------------
 Center     Atomic                   Forces (Hartrees/Bohr)
 Number     Number              X              Y              Z
 -------------------------------------------------------------------
      1       11          -0.003211126    0.000011362    0.003248885
      2       11           0.007608328    0.000013673   -0.000724624
      3       11          -0.001571447   -0.000626532    0.001001667
      4       11          -0.002825755    0.000601496   -0.003525929
 -------------------------------------------------------------------
 Cartesian Forces:  Max     0.007608328 RMS     0.002942828
 Z-matrix is all fixed cartesians, so copy forces.
 Force constants in Cartesian coordinates: 
                1             2             3             4             5 
      1  0.100000D+01
      2  0.000000D+00  0.100000D+01
      3  0.000000D+00  0.000000D+00  0.100000D+01
      4  0.000000D+00  0.000000D+00  0.000000D+00  0.100000D+01
      5  0.000000D+00  0.000000D+00  0.000000D+00  0.000000D+00  0.100000D+01
      6  0.000000D+00  0.000000D+00  0.000000D+00  0.000000D+00  0.000000D+00
      7  0.000000D+00  0.000000D+00  0.000000D+00  0.000000D+00  0.000000D+00
      8  0.000000D+00  0.000000D+00  0.000000D+00  0.000000D+00  0.000000D+00
      9  0.000000D+00  0.000000D+00  0.000000D+00  0.000000D+00  0.000000D+00
     10  0.000000D+00  0.000000D+00  0.000000D+00  0.000000D+00  0.000000D+00
     11  0.000000D+00  0.000000D+00  0.000000D+00  0.000000D+00  0.000000D+00
     12  0.000000D+00  0.000000D+00  0.000000D+00  0.000000D+00  0.000000D+00
                6             7             8             9            10 
      6  0.100000D+01
      7  0.000000D+00  0.100000D+01
      8  0.000000D+00  0.000000D+00  0.100000D+01
      9  0.000000D+00  0.000000D+00  0.000000D+00  0.100000D+01
     10  0.000000D+00  0.000000D+00  0.000000D+00  0.000000D+00  0.100000D+01
     11  0.000000D+00  0.000000D+00  0.000000D+00  0.000000D+00  0.000000D+00
     12  0.000000D+00  0.000000D+00  0.000000D+00  0.000000D+00  0.000000D+00
               11            12 
     11  0.100000D+01
     12  0.000000D+00  0.100000D+01
 Leave Link  716 at Tue Aug  8 11:07:29 2023, MaxMem=  1610612736 cpu:               0.3 elap:               0.0
 (Enter /home/sekinelabo/g16/l103.exe)

 GradGradGradGradGradGradGradGradGradGradGradGradGradGradGradGradGradGrad
 Berny optimization.
 Search for a local minimum.
 Step number   1 out of a maximum of    2
 All quantities printed in internal units (Hartrees-Bohrs-Radians)
 Second derivative matrix not updated -- first step.
 The second derivative matrix:
                          X1        Y1        Z1        X2        Y2
           X1           1.00000
           Y1          -0.00000   1.00000
           Z1          -0.00000  -0.00000   1.00000
           X2           0.00000   0.00000   0.00000   1.00000
           Y2           0.00000   0.00000   0.00000  -0.00000   1.00000
           Z2           0.00000   0.00000   0.00000  -0.00000  -0.00000
           X3           0.00000   0.00000   0.00000   0.00000   0.00000
           Y3           0.00000   0.00000   0.00000   0.00000   0.00000
           Z3           0.00000   0.00000   0.00000   0.00000   0.00000
           X4           0.00000   0.00000   0.00000   0.00000   0.00000
           Y4           0.00000   0.00000   0.00000   0.00000   0.00000
           Z4           0.00000   0.00000   0.00000   0.00000   0.00000
                          Z2        X3        Y3        Z3        X4
           Z2           1.00000
           X3           0.00000   1.00000
           Y3           0.00000  -0.00000   1.00000
           Z3           0.00000  -0.00000  -0.00000   1.00000
           X4           0.00000   0.00000   0.00000   0.00000   1.00000
           Y4           0.00000   0.00000   0.00000   0.00000  -0.00000
           Z4           0.00000   0.00000   0.00000   0.00000  -0.00000
                          Y4        Z4
           Y4           1.00000
           Z4          -0.00000   1.00000
 ITU=  0
     Eigenvalues ---    1.00000   1.00000   1.00000   1.00000   1.00000
     Eigenvalues ---    1.00000   1.00000   1.00000   1.00000   1.00000
     Eigenvalues ---    1.00000   1.00000
 Angle between quadratic step and forces=   0.00 degrees.
 Linear search not attempted -- first point.
 B after Tr=     0.000000    0.000000    0.000000
         Rot=    1.000000   -0.000000    0.000000   -0.000000 Ang=   0.00 deg.
 Variable       Old X    -DE/DX   Delta X   Delta X   Delta X     New X
                                 (Linear)    (Quad)   (Total)
    X1       -0.00000  -0.00321   0.00000  -0.00321  -0.00321  -0.00321
    Y1        0.00000   0.00001   0.00000   0.00001   0.00001   0.00001
    Z1       -0.00000   0.00325   0.00000   0.00325   0.00325   0.00325
    X2       -7.35295   0.00761   0.00000   0.00761   0.00761  -7.34535
    Y2        0.00000   0.00001   0.00000   0.00001   0.00001   0.00001
    Z2        6.93780  -0.00072   0.00000  -0.00072  -0.00072   6.93708
    X3       -0.00000  -0.00157   0.00000  -0.00157  -0.00157  -0.00157
    Y3        0.00000  -0.00063   0.00000  -0.00063  -0.00063  -0.00063
    Z3       10.73969   0.00100   0.00000   0.00100   0.00100  10.74069
    X4        6.33842  -0.00283   0.00000  -0.00283  -0.00283   6.33559
    Y4       -1.31390   0.00060   0.00000   0.00060   0.00060  -1.31330
    Z4       18.73039  -0.00353   0.00000  -0.00353  -0.00353  18.72687
         Item               Value     Threshold  Converged?
 Maximum Force            0.007608     0.000450     NO 
 RMS     Force            0.002943     0.000300     NO 
 Maximum Displacement     0.007608     0.001800     NO 
 RMS     Displacement     0.002943     0.001200     NO 
 Predicted change in Energy=-5.196142D-05
 GradGradGradGradGradGradGradGradGradGradGradGradGradGradGradGradGradGrad

 Leave Link  103 at Tue Aug  8 11:07:29 2023, MaxMem=  1610612736 cpu:               0.2 elap:               0.0
 (Enter /home/sekinelabo/g16/l9999.exe)
 1\1\GINC-SEKINELABO-XA7R-R37\Force\RB3LYP\6-311+G(d)\Na4\SEKINELABO\08
 -Aug-2023\0\\#p B3LYP/6-311+g(d) force\\Test\\0,1\Na,0.,0.,0.\Na,-3.89
 10159599,0.,3.6713268776\Na,0.,0.,5.6831998628\Na,3.3541458821,-0.6952
 869686,9.9116962412\\Version=ES64L-G16RevB.01\State=1-A\HF=-649.151872
 9\RMSD=3.533e-09\RMSF=2.943e-03\Dipole=-0.6803139,0.0598811,-0.7640817
 \Quadrupole=6.5434831,-5.0404395,-1.5030436,-0.3060892,-0.7584139,-0.2
 73813\PG=C01 [X(Na4)]\\@


 IF AT FIRST YOU DON'T SUCCEED, TRY, TRY AGAIN.
 THEN GIVE UP;
 THERE'S NO USE BEING A DAMN FOOL ABOUT IT.

                                 -- W. C. FIELDS
 Job cpu time:       0 days  0 hours  0 minutes 43.1 seconds.
 Elapsed time:       0 days  0 hours  0 minutes  3.1 seconds.
 File lengths (MBytes):  RWF=     10 Int=      0 D2E=      0 Chk=      2 Scr=      1
 Normal termination of Gaussian 16 at Tue Aug  8 11:07:29 2023.
