 Initial command:
 /home/sekinelabo/g16/l1.exe "/home/sekinelabo/g16temp/Gau-20140.inp" -scrdir="/home/sekinelabo/g16temp/"
 Entering Link 1 = /home/sekinelabo/g16/l1.exe PID=     20142.
  
 Copyright (c) 1988-2017, Gaussian, Inc.  All Rights Reserved.
  
 This is part of the Gaussian(R) 16 program.  It is based on
 the Gaussian(R) 09 system (copyright 2009, Gaussian, Inc.),
 the Gaussian(R) 03 system (copyright 2003, Gaussian, Inc.),
 the Gaussian(R) 98 system (copyright 1998, Gaussian, Inc.),
 the Gaussian(R) 94 system (copyright 1995, Gaussian, Inc.),
 the Gaussian 92(TM) system (copyright 1992, Gaussian, Inc.),
 the Gaussian 90(TM) system (copyright 1990, Gaussian, Inc.),
 the Gaussian 88(TM) system (copyright 1988, Gaussian, Inc.),
 the Gaussian 86(TM) system (copyright 1986, Carnegie Mellon
 University), and the Gaussian 82(TM) system (copyright 1983,
 Carnegie Mellon University). Gaussian is a federally registered
 trademark of Gaussian, Inc.
  
 This software contains proprietary and confidential information,
 including trade secrets, belonging to Gaussian, Inc.
  
 This software is provided under written license and may be
 used, copied, transmitted, or stored only in accord with that
 written license.
  
 The following legend is applicable only to US Government
 contracts under FAR:
  
                    RESTRICTED RIGHTS LEGEND
  
 Use, reproduction and disclosure by the US Government is
 subject to restrictions as set forth in subparagraphs (a)
 and (c) of the Commercial Computer Software - Restricted
 Rights clause in FAR 52.227-19.
  
 Gaussian, Inc.
 340 Quinnipiac St., Bldg. 40, Wallingford CT 06492
  
  
 ---------------------------------------------------------------
 Warning -- This program may not be used in any manner that
 competes with the business of Gaussian, Inc. or will provide
 assistance to any competitor of Gaussian, Inc.  The licensee
 of this program is prohibited from giving any competitor of
 Gaussian, Inc. access to this program.  By using this program,
 the user acknowledges that Gaussian, Inc. is engaged in the
 business of creating and licensing software in the field of
 computational chemistry and represents and warrants to the
 licensee that it is not a competitor of Gaussian, Inc. and that
 it will not use this program in any manner prohibited above.
 ---------------------------------------------------------------
  

 Cite this work as:
 Gaussian 16, Revision B.01,
 M. J. Frisch, G. W. Trucks, H. B. Schlegel, G. E. Scuseria, 
 M. A. Robb, J. R. Cheeseman, G. Scalmani, V. Barone, 
 G. A. Petersson, H. Nakatsuji, X. Li, M. Caricato, A. V. Marenich, 
 J. Bloino, B. G. Janesko, R. Gomperts, B. Mennucci, H. P. Hratchian, 
 J. V. Ortiz, A. F. Izmaylov, J. L. Sonnenberg, D. Williams-Young, 
 F. Ding, F. Lipparini, F. Egidi, J. Goings, B. Peng, A. Petrone, 
 T. Henderson, D. Ranasinghe, V. G. Zakrzewski, J. Gao, N. Rega, 
 G. Zheng, W. Liang, M. Hada, M. Ehara, K. Toyota, R. Fukuda, 
 J. Hasegawa, M. Ishida, T. Nakajima, Y. Honda, O. Kitao, H. Nakai, 
 T. Vreven, K. Throssell, J. A. Montgomery, Jr., J. E. Peralta, 
 F. Ogliaro, M. J. Bearpark, J. J. Heyd, E. N. Brothers, K. N. Kudin, 
 V. N. Staroverov, T. A. Keith, R. Kobayashi, J. Normand, 
 K. Raghavachari, A. P. Rendell, J. C. Burant, S. S. Iyengar, 
 J. Tomasi, M. Cossi, J. M. Millam, M. Klene, C. Adamo, R. Cammi, 
 J. W. Ochterski, R. L. Martin, K. Morokuma, O. Farkas, 
 J. B. Foresman, and D. J. Fox, Gaussian, Inc., Wallingford CT, 2016.
 
 ******************************************
 Gaussian 16:  ES64L-G16RevB.01 20-Dec-2017
                23-Aug-2023 
 ******************************************
 %NProcShared=16
 Will use up to   16 processors via shared memory.
 %mem=12GB
 %Chk=checkpoint.chk
 -------------------------
 #p B3LYP/6-311+g(d) force
 -------------------------
 1/10=7,30=1,38=1/1,3;
 2/12=2,17=6,18=5,40=1/2;
 3/5=4,6=6,7=11,11=2,25=1,30=1,71=1,74=-5/1,2,3;
 4//1;
 5/5=2,38=5/2;
 6/7=2,8=2,9=2,10=2,28=1/1;
 7/29=1/1,2,3,16;
 1/10=7,30=1/3;
 99//99;
 Leave Link    1 at Wed Aug 23 10:07:38 2023, MaxMem=  1610612736 cpu:               0.2 elap:               0.0
 (Enter /home/sekinelabo/g16/l101.exe)


 Symbolic Z-matrix:
 Charge =  0 Multiplicity = 1
 Na                    0.        0.        0. 
 Na                   -2.60531   0.       -4.54052 
 Na                    0.        0.        4.88794 
 Na                    2.35443  -3.4848    6.23786 
 
 ITRead=  0  0  0  0
 MicOpt= -1 -1 -1 -1
 NAtoms=      4 NQM=        4 NQMF=       0 NMMI=      0 NMMIF=      0
                NMic=       0 NMicF=      0.
                    Isotopes and Nuclear Properties:
 (Nuclear quadrupole moments (NQMom) in fm**2, nuclear magnetic moments (NMagM)
  in nuclear magnetons)

  Atom         1           2           3           4
 IAtWgt=          23          23          23          23
 AtmWgt=  22.9897697  22.9897697  22.9897697  22.9897697
 NucSpn=           3           3           3           3
 AtZEff=  -0.0000000  -0.0000000  -0.0000000  -0.0000000
 NQMom=   10.4000000  10.4000000  10.4000000  10.4000000
 NMagM=    2.2175200   2.2175200   2.2175200   2.2175200
 AtZNuc=  11.0000000  11.0000000  11.0000000  11.0000000
 Leave Link  101 at Wed Aug 23 10:07:38 2023, MaxMem=  1610612736 cpu:               1.6 elap:               0.1
 (Enter /home/sekinelabo/g16/l103.exe)

 GradGradGradGradGradGradGradGradGradGradGradGradGradGradGradGradGradGrad
 Berny optimization.
 Initialization pass.
 Trust Radius=3.00D-01 FncErr=1.00D-07 GrdErr=1.00D-07 EigMax=2.50D+02 EigMin=1.00D-04
 Number of steps in this run=      2 maximum allowed number of steps=      2.
 GradGradGradGradGradGradGradGradGradGradGradGradGradGradGradGradGradGrad

 Leave Link  103 at Wed Aug 23 10:07:38 2023, MaxMem=  1610612736 cpu:               0.2 elap:               0.0
 (Enter /home/sekinelabo/g16/l202.exe)
                          Input orientation:                          
 ---------------------------------------------------------------------
 Center     Atomic      Atomic             Coordinates (Angstroms)
 Number     Number       Type             X           Y           Z
 ---------------------------------------------------------------------
      1         11           0        0.000000    0.000000    0.000000
      2         11           0       -2.605306    0.000000   -4.540524
      3         11           0        0.000000    0.000000    4.887942
      4         11           0        2.354426   -3.484804    6.237861
 ---------------------------------------------------------------------
                    Distance matrix (angstroms):
                    1          2          3          4
     1  Na   0.000000
     2  Na   5.234881   0.000000
     3  Na   4.887942   9.781799   0.000000
     4  Na   7.523170  12.365937   4.416952   0.000000
 Stoichiometry    Na4
 Framework group  C1[X(Na4)]
 Deg. of freedom     6
 Full point group                 C1      NOp   1
 Largest Abelian subgroup         C1      NOp   1
 Largest concise Abelian subgroup C1      NOp   1
                         Standard orientation:                         
 ---------------------------------------------------------------------
 Center     Atomic      Atomic             Coordinates (Angstroms)
 Number     Number       Type             X           Y           Z
 ---------------------------------------------------------------------
      1         11           0        1.668995    0.147342    0.816113
      2         11           0        6.712386   -0.519302   -0.418297
      3         11           0       -2.770655    1.875592   -0.276880
      4         11           0       -5.610725   -1.503631   -0.120936
 ---------------------------------------------------------------------
 Rotational constants (GHZ):           3.1393037           0.2500011           0.2361998
 Leave Link  202 at Wed Aug 23 10:07:38 2023, MaxMem=  1610612736 cpu:               0.1 elap:               0.0
 (Enter /home/sekinelabo/g16/l301.exe)
 Standard basis: 6-311+G(d) (5D, 7F)
 Ernie: Thresh=  0.10000D-02 Tol=  0.10000D-05 Strict=F.
 There are   124 symmetry adapted cartesian basis functions of A   symmetry.
 There are   120 symmetry adapted basis functions of A   symmetry.
   120 basis functions,   200 primitive gaussians,   124 cartesian basis functions
    22 alpha electrons       22 beta electrons
       nuclear repulsion energy        60.0626400871 Hartrees.
 IExCor=  402 DFT=T Ex+Corr=B3LYP ExCW=0 ScaHFX=  0.200000
 ScaDFX=  0.800000  0.720000  1.000000  0.810000 ScalE2=  1.000000  1.000000
 IRadAn=      5 IRanWt=     -1 IRanGd=            0 ICorTp=0 IEmpDi=  4
 NAtoms=    4 NActive=    4 NUniq=    4 SFac= 1.00D+00 NAtFMM=   60 NAOKFM=F Big=F
 Integral buffers will be    131072 words long.
 Raffenetti 2 integral format.
 Two-electron integral symmetry is turned on.
 Leave Link  301 at Wed Aug 23 10:07:38 2023, MaxMem=  1610612736 cpu:               0.4 elap:               0.0
 (Enter /home/sekinelabo/g16/l302.exe)
 NPDir=0 NMtPBC=     1 NCelOv=     1 NCel=       1 NClECP=     1 NCelD=      1
         NCelK=      1 NCelE2=     1 NClLst=     1 CellRange=     0.0.
 One-electron integrals computed using PRISM.
 One-electron integral symmetry used in STVInt
 NBasis=   120 RedAO= T EigKep=  5.99D-04  NBF=   120
 NBsUse=   120 1.00D-06 EigRej= -1.00D+00 NBFU=   120
 Precomputing XC quadrature grid using
 IXCGrd= 4 IRadAn=           5 IRanWt=          -1 IRanGd=           0 AccXCQ= 0.00D+00.
 Generated NRdTot=       0 NPtTot=           0 NUsed=           0 NTot=          32
 NSgBfM=   111   111   111   111   111 MxSgAt=     4 MxSgA2=     4.
 Leave Link  302 at Wed Aug 23 10:07:38 2023, MaxMem=  1610612736 cpu:               1.4 elap:               0.1
 (Enter /home/sekinelabo/g16/l303.exe)
 DipDrv:  MaxL=1.
 Leave Link  303 at Wed Aug 23 10:07:38 2023, MaxMem=  1610612736 cpu:               0.3 elap:               0.0
 (Enter /home/sekinelabo/g16/l401.exe)
 ExpMin= 7.60D-03 ExpMax= 3.62D+04 ExpMxC= 1.21D+03 IAcc=3 IRadAn=         5 AccDes= 0.00D+00
 Harris functional with IExCor=  402 and IRadAn=       5 diagonalized for initial guess.
 HarFok:  IExCor=  402 AccDes= 0.00D+00 IRadAn=         5 IDoV= 1 UseB2=F ITyADJ=14
 ICtDFT=  3500011 ScaDFX=  1.000000  1.000000  1.000000  1.000000
 FoFCou: FMM=F IPFlag=           0 FMFlag=      100000 FMFlg1=           0
         NFxFlg=           0 DoJE=T BraDBF=F KetDBF=T FulRan=T
         wScrn=  0.000000 ICntrl=       500 IOpCl=  0 I1Cent=   200000004 NGrid=           0
         NMat0=    1 NMatS0=      1 NMatT0=    0 NMatD0=    1 NMtDS0=    0 NMtDT0=    0
 Petite list used in FoFCou.
 Harris En= -649.035700320887    
 JPrj=0 DoOrth=F DoCkMO=F.
 Leave Link  401 at Wed Aug 23 10:07:39 2023, MaxMem=  1610612736 cpu:               2.1 elap:               0.1
 (Enter /home/sekinelabo/g16/l502.exe)
 Keep R1 ints in memory in canonical form, NReq=41581754.
 FoFCou: FMM=F IPFlag=           0 FMFlag=           0 FMFlg1=           0
         NFxFlg=           0 DoJE=F BraDBF=F KetDBF=F FulRan=T
         wScrn=  0.000000 ICntrl=       600 IOpCl=  0 I1Cent=           0 NGrid=           0
         NMat0=    1 NMatS0=   7260 NMatT0=    0 NMatD0=    1 NMtDS0=    0 NMtDT0=    0
 Symmetry not used in FoFCou.
 Two-electron integral symmetry not used.
 Closed shell SCF:
 Using DIIS extrapolation, IDIIS=  1040.
 NGot=  1610612736 LenX=  1584221388 LenY=  1584205571
 Requested convergence on RMS density matrix=1.00D-08 within 128 cycles.
 Requested convergence on MAX density matrix=1.00D-06.
 Requested convergence on             energy=1.00D-06.
 No special actions if energy rises.

 Cycle   1  Pass 1  IDiag  1:
 E= -649.148198299273    
 DIIS: error= 1.13D-02 at cycle   1 NSaved=   1.
 NSaved= 1 IEnMin= 1 EnMin= -649.148198299273     IErMin= 1 ErrMin= 1.13D-02
 ErrMax= 1.13D-02  0.00D+00 EMaxC= 1.00D-01 BMatC= 2.70D-02 BMatP= 2.70D-02
 IDIUse=3 WtCom= 8.87D-01 WtEn= 1.13D-01
 Coeff-Com:  0.100D+01
 Coeff-En:   0.100D+01
 Coeff:      0.100D+01
 Gap=     0.028 Goal=   None    Shift=    0.000
 GapD=    0.028 DampG=0.250 DampE=0.500 DampFc=0.2500 IDamp=-1.
 Damping current iteration by 2.50D-01
 RMSDP=2.09D-03 MaxDP=8.89D-02              OVMax= 1.15D-01

 Cycle   2  Pass 1  IDiag  1:
 E= -649.152051123099     Delta-E=       -0.003852823825 Rises=F Damp=T
 DIIS: error= 7.97D-03 at cycle   2 NSaved=   2.
 NSaved= 2 IEnMin= 2 EnMin= -649.152051123099     IErMin= 2 ErrMin= 7.97D-03
 ErrMax= 7.97D-03  0.00D+00 EMaxC= 1.00D-01 BMatC= 1.03D-02 BMatP= 2.70D-02
 IDIUse=3 WtCom= 9.20D-01 WtEn= 7.97D-02
 Coeff-Com: -0.126D+01 0.226D+01
 Coeff-En:   0.000D+00 0.100D+01
 Coeff:     -0.116D+01 0.216D+01
 Gap=     0.024 Goal=   None    Shift=    0.000
 RMSDP=2.23D-03 MaxDP=1.30D-01 DE=-3.85D-03 OVMax= 2.74D-01

 Cycle   3  Pass 1  IDiag  1:
 E= -649.146633838128     Delta-E=        0.005417284971 Rises=F Damp=F
 DIIS: error= 5.65D-03 at cycle   3 NSaved=   3.
 NSaved= 3 IEnMin= 2 EnMin= -649.152051123099     IErMin= 3 ErrMin= 5.65D-03
 ErrMax= 5.65D-03  0.00D+00 EMaxC= 1.00D-01 BMatC= 1.58D-03 BMatP= 1.03D-02
 IDIUse=3 WtCom= 9.43D-01 WtEn= 5.65D-02
 Coeff-Com: -0.493D+00 0.876D+00 0.617D+00
 Coeff-En:   0.000D+00 0.707D+00 0.293D+00
 Coeff:     -0.465D+00 0.866D+00 0.598D+00
 Gap=     0.024 Goal=   None    Shift=    0.000
 RMSDP=4.68D-03 MaxDP=3.23D-01 DE= 5.42D-03 OVMax= 4.94D-01

 Cycle   4  Pass 1  IDiag  1:
 E= -649.120722885267     Delta-E=        0.025910952861 Rises=F Damp=F
 DIIS: error= 7.74D-03 at cycle   4 NSaved=   4.
 NSaved= 4 IEnMin= 2 EnMin= -649.152051123099     IErMin= 3 ErrMin= 5.65D-03
 ErrMax= 7.74D-03  0.00D+00 EMaxC= 1.00D-01 BMatC= 4.07D-03 BMatP= 1.58D-03
 IDIUse=3 WtCom= 1.02D-01 WtEn= 8.98D-01
 Coeff-Com: -0.165D-01 0.487D-01 0.605D+00 0.363D+00
 Coeff-En:   0.000D+00 0.000D+00 0.662D+00 0.338D+00
 Coeff:     -0.169D-02 0.497D-02 0.657D+00 0.340D+00
 Gap=     0.033 Goal=   None    Shift=    0.000
 RMSDP=2.63D-03 MaxDP=1.97D-01 DE= 2.59D-02 OVMax= 2.66D-01

 Cycle   5  Pass 1  IDiag  1:
 E= -649.158871801239     Delta-E=       -0.038148915972 Rises=F Damp=F
 DIIS: error= 2.11D-03 at cycle   5 NSaved=   5.
 NSaved= 5 IEnMin= 5 EnMin= -649.158871801239     IErMin= 5 ErrMin= 2.11D-03
 ErrMax= 2.11D-03  0.00D+00 EMaxC= 1.00D-01 BMatC= 1.91D-04 BMatP= 1.58D-03
 IDIUse=3 WtCom= 9.79D-01 WtEn= 2.11D-02
 Coeff-Com: -0.172D-01 0.219D-01 0.257D+00 0.432D-02 0.734D+00
 Coeff-En:   0.000D+00 0.000D+00 0.185D+00 0.000D+00 0.815D+00
 Coeff:     -0.169D-01 0.214D-01 0.256D+00 0.423D-02 0.735D+00
 Gap=     0.028 Goal=   None    Shift=    0.000
 RMSDP=5.32D-04 MaxDP=2.79D-02 DE=-3.81D-02 OVMax= 4.60D-02

 Cycle   6  Pass 1  IDiag  1:
 E= -649.160312280583     Delta-E=       -0.001440479344 Rises=F Damp=F
 DIIS: error= 4.05D-04 at cycle   6 NSaved=   6.
 NSaved= 6 IEnMin= 6 EnMin= -649.160312280583     IErMin= 6 ErrMin= 4.05D-04
 ErrMax= 4.05D-04  0.00D+00 EMaxC= 1.00D-01 BMatC= 1.56D-05 BMatP= 1.91D-04
 IDIUse=3 WtCom= 9.96D-01 WtEn= 4.05D-03
 Coeff-Com: -0.132D-01 0.167D-01 0.132D+00-0.222D-01 0.444D+00 0.442D+00
 Coeff-En:   0.000D+00 0.000D+00 0.000D+00 0.000D+00 0.000D+00 0.100D+01
 Coeff:     -0.131D-01 0.166D-01 0.131D+00-0.221D-01 0.443D+00 0.445D+00
 Gap=     0.028 Goal=   None    Shift=    0.000
 RMSDP=2.30D-04 MaxDP=1.45D-02 DE=-1.44D-03 OVMax= 1.79D-02

 Cycle   7  Pass 1  IDiag  1:
 E= -649.160380444746     Delta-E=       -0.000068164163 Rises=F Damp=F
 DIIS: error= 2.83D-04 at cycle   7 NSaved=   7.
 NSaved= 7 IEnMin= 7 EnMin= -649.160380444746     IErMin= 7 ErrMin= 2.83D-04
 ErrMax= 2.83D-04  0.00D+00 EMaxC= 1.00D-01 BMatC= 4.42D-06 BMatP= 1.56D-05
 IDIUse=3 WtCom= 9.97D-01 WtEn= 2.83D-03
 Coeff-Com: -0.381D-02 0.470D-02 0.465D-01-0.181D-01 0.138D+00 0.309D+00
 Coeff-Com:  0.524D+00
 Coeff-En:   0.000D+00 0.000D+00 0.000D+00 0.000D+00 0.000D+00 0.254D+00
 Coeff-En:   0.746D+00
 Coeff:     -0.380D-02 0.469D-02 0.463D-01-0.181D-01 0.137D+00 0.309D+00
 Coeff:      0.525D+00
 Gap=     0.028 Goal=   None    Shift=    0.000
 RMSDP=1.08D-04 MaxDP=6.79D-03 DE=-6.82D-05 OVMax= 1.08D-02

 Cycle   8  Pass 1  IDiag  1:
 E= -649.160393600529     Delta-E=       -0.000013155783 Rises=F Damp=F
 DIIS: error= 2.01D-04 at cycle   8 NSaved=   8.
 NSaved= 8 IEnMin= 8 EnMin= -649.160393600529     IErMin= 8 ErrMin= 2.01D-04
 ErrMax= 2.01D-04  0.00D+00 EMaxC= 1.00D-01 BMatC= 2.08D-06 BMatP= 4.42D-06
 IDIUse=3 WtCom= 9.98D-01 WtEn= 2.01D-03
 Coeff-Com: -0.527D-03 0.581D-03 0.295D-01-0.117D-01 0.498D-01 0.118D+00
 Coeff-Com:  0.348D+00 0.467D+00
 Coeff-En:   0.000D+00 0.000D+00 0.000D+00 0.000D+00 0.000D+00 0.000D+00
 Coeff-En:   0.298D+00 0.702D+00
 Coeff:     -0.526D-03 0.580D-03 0.295D-01-0.117D-01 0.497D-01 0.118D+00
 Coeff:      0.348D+00 0.467D+00
 Gap=     0.028 Goal=   None    Shift=    0.000
 RMSDP=3.89D-05 MaxDP=2.36D-03 DE=-1.32D-05 OVMax= 4.63D-03

 Cycle   9  Pass 1  IDiag  1:
 E= -649.160409288335     Delta-E=       -0.000015687806 Rises=F Damp=F
 DIIS: error= 8.18D-05 at cycle   9 NSaved=   9.
 NSaved= 9 IEnMin= 9 EnMin= -649.160409288335     IErMin= 9 ErrMin= 8.18D-05
 ErrMax= 8.18D-05  0.00D+00 EMaxC= 1.00D-01 BMatC= 4.69D-07 BMatP= 2.08D-06
 IDIUse=1 WtCom= 1.00D+00 WtEn= 0.00D+00
 Coeff-Com:  0.104D-02-0.139D-02 0.877D-02-0.297D-02-0.648D-02-0.233D-01
 Coeff-Com:  0.405D-01-0.864D-01 0.107D+01
 Coeff:      0.104D-02-0.139D-02 0.877D-02-0.297D-02-0.648D-02-0.233D-01
 Coeff:      0.405D-01-0.864D-01 0.107D+01
 Gap=     0.028 Goal=   None    Shift=    0.000
 RMSDP=2.32D-05 MaxDP=1.51D-03 DE=-1.57D-05 OVMax= 2.61D-03

 Cycle  10  Pass 1  IDiag  1:
 E= -649.160413106241     Delta-E=       -0.000003817906 Rises=F Damp=F
 DIIS: error= 1.95D-05 at cycle  10 NSaved=  10.
 NSaved=10 IEnMin=10 EnMin= -649.160413106241     IErMin=10 ErrMin= 1.95D-05
 ErrMax= 1.95D-05  0.00D+00 EMaxC= 1.00D-01 BMatC= 2.78D-08 BMatP= 4.69D-07
 IDIUse=1 WtCom= 1.00D+00 WtEn= 0.00D+00
 Coeff-Com:  0.448D-03-0.598D-03 0.194D-02-0.495D-03-0.566D-02-0.221D-01
 Coeff-Com: -0.131D-01-0.797D-01 0.311D+00 0.808D+00
 Coeff:      0.448D-03-0.598D-03 0.194D-02-0.495D-03-0.566D-02-0.221D-01
 Coeff:     -0.131D-01-0.797D-01 0.311D+00 0.808D+00
 Gap=     0.028 Goal=   None    Shift=    0.000
 RMSDP=5.72D-06 MaxDP=3.53D-04 DE=-3.82D-06 OVMax= 5.74D-04

 Cycle  11  Pass 1  IDiag  1:
 E= -649.160413312533     Delta-E=       -0.000000206292 Rises=F Damp=F
 DIIS: error= 4.47D-06 at cycle  11 NSaved=  11.
 NSaved=11 IEnMin=11 EnMin= -649.160413312533     IErMin=11 ErrMin= 4.47D-06
 ErrMax= 4.47D-06  0.00D+00 EMaxC= 1.00D-01 BMatC= 1.32D-09 BMatP= 2.78D-08
 IDIUse=1 WtCom= 1.00D+00 WtEn= 0.00D+00
 Coeff-Com: -0.278D-05 0.357D-05 0.491D-04-0.153D-04-0.403D-03-0.211D-03
 Coeff-Com: -0.259D-03-0.509D-02-0.335D-01 0.794D-02 0.103D+01
 Coeff:     -0.278D-05 0.357D-05 0.491D-04-0.153D-04-0.403D-03-0.211D-03
 Coeff:     -0.259D-03-0.509D-02-0.335D-01 0.794D-02 0.103D+01
 Gap=     0.028 Goal=   None    Shift=    0.000
 RMSDP=1.67D-06 MaxDP=1.03D-04 DE=-2.06D-07 OVMax= 1.71D-04

 Cycle  12  Pass 1  IDiag  1:
 E= -649.160413324004     Delta-E=       -0.000000011471 Rises=F Damp=F
 DIIS: error= 2.09D-07 at cycle  12 NSaved=  12.
 NSaved=12 IEnMin=12 EnMin= -649.160413324004     IErMin=12 ErrMin= 2.09D-07
 ErrMax= 2.09D-07  0.00D+00 EMaxC= 1.00D-01 BMatC= 2.17D-12 BMatP= 1.32D-09
 IDIUse=1 WtCom= 1.00D+00 WtEn= 0.00D+00
 Coeff-Com: -0.410D-05 0.505D-05-0.310D-05-0.287D-05 0.775D-04 0.663D-03
 Coeff-Com:  0.103D-02-0.513D-03-0.219D-02-0.255D-01 0.778D-01 0.949D+00
 Coeff:     -0.410D-05 0.505D-05-0.310D-05-0.287D-05 0.775D-04 0.663D-03
 Coeff:      0.103D-02-0.513D-03-0.219D-02-0.255D-01 0.778D-01 0.949D+00
 Gap=     0.028 Goal=   None    Shift=    0.000
 RMSDP=9.67D-08 MaxDP=2.40D-06 DE=-1.15D-08 OVMax= 1.02D-05

 Cycle  13  Pass 1  IDiag  1:
 E= -649.160413324022     Delta-E=       -0.000000000018 Rises=F Damp=F
 DIIS: error= 4.26D-08 at cycle  13 NSaved=  13.
 NSaved=13 IEnMin=13 EnMin= -649.160413324022     IErMin=13 ErrMin= 4.26D-08
 ErrMax= 4.26D-08  0.00D+00 EMaxC= 1.00D-01 BMatC= 2.22D-13 BMatP= 2.17D-12
 IDIUse=1 WtCom= 1.00D+00 WtEn= 0.00D+00
 Coeff-Com: -0.254D-05 0.334D-05-0.236D-04 0.611D-05 0.405D-04 0.149D-03
 Coeff-Com:  0.983D-04 0.302D-03-0.190D-02-0.611D-02-0.166D-01 0.230D+00
 Coeff-Com:  0.794D+00
 Coeff:     -0.254D-05 0.334D-05-0.236D-04 0.611D-05 0.405D-04 0.149D-03
 Coeff:      0.983D-04 0.302D-03-0.190D-02-0.611D-02-0.166D-01 0.230D+00
 Coeff:      0.794D+00
 Gap=     0.028 Goal=   None    Shift=    0.000
 RMSDP=5.17D-08 MaxDP=2.77D-06 DE=-1.83D-11 OVMax= 4.30D-06

 Cycle  14  Pass 1  IDiag  1:
 E= -649.160413324018     Delta-E=        0.000000000004 Rises=F Damp=F
 DIIS: error= 6.94D-08 at cycle  14 NSaved=  14.
 NSaved=14 IEnMin=13 EnMin= -649.160413324022     IErMin=13 ErrMin= 4.26D-08
 ErrMax= 6.94D-08  0.00D+00 EMaxC= 1.00D-01 BMatC= 3.43D-13 BMatP= 2.22D-13
 IDIUse=1 WtCom= 1.00D+00 WtEn= 0.00D+00
 Coeff-Com: -0.387D-06 0.554D-06-0.502D-05 0.970D-06 0.114D-04-0.337D-04
 Coeff-Com: -0.113D-03 0.151D-03 0.336D-03 0.229D-02-0.177D-01-0.455D-01
 Coeff-Com:  0.264D+00 0.796D+00
 Coeff:     -0.387D-06 0.554D-06-0.502D-05 0.970D-06 0.114D-04-0.337D-04
 Coeff:     -0.113D-03 0.151D-03 0.336D-03 0.229D-02-0.177D-01-0.455D-01
 Coeff:      0.264D+00 0.796D+00
 Gap=     0.028 Goal=   None    Shift=    0.000
 RMSDP=2.38D-08 MaxDP=1.34D-06 DE= 4.43D-12 OVMax= 2.56D-06

 Cycle  15  Pass 1  IDiag  1:
 E= -649.160413324024     Delta-E=       -0.000000000006 Rises=F Damp=F
 DIIS: error= 1.08D-08 at cycle  15 NSaved=  15.
 NSaved=15 IEnMin=15 EnMin= -649.160413324024     IErMin=15 ErrMin= 1.08D-08
 ErrMax= 1.08D-08  0.00D+00 EMaxC= 1.00D-01 BMatC= 8.39D-15 BMatP= 2.22D-13
 IDIUse=1 WtCom= 1.00D+00 WtEn= 0.00D+00
 Coeff-Com: -0.800D-08 0.138D-07-0.639D-06 0.175D-06-0.900D-06-0.897D-05
 Coeff-Com: -0.165D-04-0.224D-04 0.911D-04 0.151D-03 0.497D-03-0.505D-02
 Coeff-Com: -0.258D-01-0.786D-01 0.111D+01
 Coeff:     -0.800D-08 0.138D-07-0.639D-06 0.175D-06-0.900D-06-0.897D-05
 Coeff:     -0.165D-04-0.224D-04 0.911D-04 0.151D-03 0.497D-03-0.505D-02
 Coeff:     -0.258D-01-0.786D-01 0.111D+01
 Gap=     0.028 Goal=   None    Shift=    0.000
 RMSDP=3.86D-09 MaxDP=1.90D-07 DE=-5.80D-12 OVMax= 4.07D-07

 SCF Done:  E(RB3LYP) =  -649.160413324     A.U. after   15 cycles
            NFock= 15  Conv=0.39D-08     -V/T= 2.0031
 KE= 6.471800293610D+02 PE=-1.678722597737D+03 EE= 3.223195149649D+02
 Leave Link  502 at Wed Aug 23 10:07:40 2023, MaxMem=  1610612736 cpu:              20.1 elap:               1.4
 (Enter /home/sekinelabo/g16/l601.exe)
 Copying SCF densities to generalized density rwf, IOpCl= 0 IROHF=0.

 **********************************************************************

            Population analysis using the SCF Density.

 **********************************************************************

 Orbital symmetries:
       Occupied  (A) (A) (A) (A) (A) (A) (A) (A) (A) (A) (A) (A)
                 (A) (A) (A) (A) (A) (A) (A) (A) (A) (A)
       Virtual   (A) (A) (A) (A) (A) (A) (A) (A) (A) (A) (A) (A)
                 (A) (A) (A) (A) (A) (A) (A) (A) (A) (A) (A) (A)
                 (A) (A) (A) (A) (A) (A) (A) (A) (A) (A) (A) (A)
                 (A) (A) (A) (A) (A) (A) (A) (A) (A) (A) (A) (A)
                 (A) (A) (A) (A) (A) (A) (A) (A) (A) (A) (A) (A)
                 (A) (A) (A) (A) (A) (A) (A) (A) (A) (A) (A) (A)
                 (A) (A) (A) (A) (A) (A) (A) (A) (A) (A) (A) (A)
                 (A) (A) (A) (A) (A) (A) (A) (A) (A) (A) (A) (A)
                 (A) (A)
 The electronic state is 1-A.
 Alpha  occ. eigenvalues --  -38.46210 -38.46156 -38.46084 -38.45999  -2.21888
 Alpha  occ. eigenvalues --   -2.21820  -2.21756  -2.21677  -1.15569  -1.15568
 Alpha  occ. eigenvalues --   -1.15514  -1.15507  -1.15504  -1.15447  -1.15434
 Alpha  occ. eigenvalues --   -1.15434  -1.15396  -1.15363  -1.15347  -1.15304
 Alpha  occ. eigenvalues --   -0.12807  -0.11360
 Alpha virt. eigenvalues --   -0.08566  -0.06899  -0.02676  -0.02610  -0.02450
 Alpha virt. eigenvalues --   -0.01761  -0.01660  -0.01251  -0.00658  -0.00453
 Alpha virt. eigenvalues --   -0.00092   0.00375   0.00525   0.00578   0.00820
 Alpha virt. eigenvalues --    0.01239   0.01379   0.01561   0.01574   0.01744
 Alpha virt. eigenvalues --    0.01992   0.02096   0.02121   0.02171   0.02486
 Alpha virt. eigenvalues --    0.02600   0.02966   0.03067   0.03444   0.03764
 Alpha virt. eigenvalues --    0.06861   0.07421   0.07794   0.07866   0.08026
 Alpha virt. eigenvalues --    0.08156   0.08333   0.08491   0.08690   0.08877
 Alpha virt. eigenvalues --    0.09275   0.09454   0.09679   0.11374   0.11935
 Alpha virt. eigenvalues --    0.12167   0.31769   0.32336   0.32438   0.32625
 Alpha virt. eigenvalues --    0.33577   0.34283   0.34418   0.34469   0.34475
 Alpha virt. eigenvalues --    0.34479   0.34512   0.34655   0.34903   0.35031
 Alpha virt. eigenvalues --    0.35243   0.35900   0.36769   0.36823   0.37823
 Alpha virt. eigenvalues --    0.39134   0.42160   0.42345   0.42710   0.43020
 Alpha virt. eigenvalues --    0.43232   0.43660   0.44081   0.44780   0.46013
 Alpha virt. eigenvalues --    0.47082   0.47788   0.49302   1.98967   2.01417
 Alpha virt. eigenvalues --    2.02319   2.04118   4.41872   4.42264   4.42594
 Alpha virt. eigenvalues --    4.42646   4.42704   4.43130   4.43398   4.43595
 Alpha virt. eigenvalues --    4.43721   4.44454   4.45655   4.46697  96.17709
 Alpha virt. eigenvalues --   96.20550  96.21647  96.23705
          Condensed to atoms (all electrons):
               1          2          3          4
     1  Na  10.869522   0.155322   0.011261  -0.052646
     2  Na   0.155322  10.915421  -0.027927  -0.008545
     3  Na   0.011261  -0.027927  10.786134   0.230887
     4  Na  -0.052646  -0.008545   0.230887  10.812217
 Mulliken charges:
               1
     1  Na   0.016541
     2  Na  -0.034271
     3  Na  -0.000356
     4  Na   0.018087
 Sum of Mulliken charges =   0.00000
 Mulliken charges with hydrogens summed into heavy atoms:
               1
     1  Na   0.016541
     2  Na  -0.034271
     3  Na  -0.000356
     4  Na   0.018087
 Electronic spatial extent (au):  <R**2>=           3775.5931
 Charge=              0.0000 electrons
 Dipole moment (field-independent basis, Debye):
    X=             -0.9975    Y=             -0.2518    Z=             -0.0768  Tot=              1.0317
 Quadrupole moment (field-independent basis, Debye-Ang):
   XX=            -27.4995   YY=            -38.2102   ZZ=            -46.0330
   XY=              3.9000   XZ=             -2.0547   YZ=             -0.6343
 Traceless Quadrupole moment (field-independent basis, Debye-Ang):
   XX=              9.7481   YY=             -0.9626   ZZ=             -8.7854
   XY=              3.9000   XZ=             -2.0547   YZ=             -0.6343
 Octapole moment (field-independent basis, Debye-Ang**2):
  XXX=             30.6422  YYY=              6.0056  ZZZ=              0.2869  XYY=            -39.1224
  XXY=            -64.3356  XXZ=            -21.4554  XZZ=             -2.7543  YZZ=              0.1634
  YYZ=             -2.8262  XYZ=              2.7868
 Hexadecapole moment (field-independent basis, Debye-Ang**3):
 XXXX=          -4335.3758 YYYY=           -511.8273 ZZZZ=           -273.9216 XXXY=            255.7988
 XXXZ=           -153.1246 YYYX=             20.4706 YYYZ=             -7.4844 ZZZX=            -10.2818
 ZZZY=             -3.9144 XXYY=           -960.8697 XXZZ=          -1069.6715 YYZZ=           -136.3626
 XXYZ=             10.5228 YYXZ=              3.1138 ZZXY=              6.0070
 N-N= 6.006264008711D+01 E-N=-1.678722597056D+03  KE= 6.471800293610D+02
 No NMR shielding tensors so no spin-rotation constants.
 Leave Link  601 at Wed Aug 23 10:07:40 2023, MaxMem=  1610612736 cpu:               1.0 elap:               0.1
 (Enter /home/sekinelabo/g16/l701.exe)
 ... and contract with generalized density number  0.
 Compute integral first derivatives.
 Leave Link  701 at Wed Aug 23 10:07:40 2023, MaxMem=  1610612736 cpu:               1.2 elap:               0.1
 (Enter /home/sekinelabo/g16/l702.exe)
 L702 exits ... SP integral derivatives will be done elsewhere.
 Leave Link  702 at Wed Aug 23 10:07:40 2023, MaxMem=  1610612736 cpu:               0.5 elap:               0.0
 (Enter /home/sekinelabo/g16/l703.exe)
 Integral derivatives from FoFJK, PRISM(SPDF).
 Compute integral first derivatives, UseDBF=F ICtDFT=           0.
 Calling FoFJK, ICntrl=      2127 FMM=F ISym2X=0 I1Cent= 0 IOpClX= 0 NMat=1 NMatS=1 NMatT=0.
 FoFJK:  IHMeth= 1 ICntrl=    2127 DoSepK=F KAlg= 0 I1Cent=           0 FoldK=F
 IRaf=         0 NMat=       1 IRICut=       1 DoRegI=T DoRafI=F ISym2E= 0 IDoP0=0 IntGTp=1.
 FoFCou: FMM=F IPFlag=           0 FMFlag=      100000 FMFlg1=         800
         NFxFlg=           0 DoJE=F BraDBF=F KetDBF=F FulRan=T
         wScrn=  0.000000 ICntrl=      2127 IOpCl=  0 I1Cent=           0 NGrid=           0
         NMat0=    1 NMatS0=      1 NMatT0=    0 NMatD0=    1 NMtDS0=    0 NMtDT0=    0
 Symmetry not used in FoFCou.
 Leave Link  703 at Wed Aug 23 10:07:41 2023, MaxMem=  1610612736 cpu:               5.4 elap:               0.3
 (Enter /home/sekinelabo/g16/l716.exe)
 Dipole        =-3.92460929D-01-9.90472116D-02-3.02305109D-02
 ***** Axes restored to original set *****
 -------------------------------------------------------------------
 Center     Atomic                   Forces (Hartrees/Bohr)
 Number     Number              X              Y              Z
 -------------------------------------------------------------------
      1       11          -0.002868942   -0.000080326   -0.002494142
      2       11           0.002884494    0.000024881    0.005005539
      3       11           0.003913726   -0.005788295   -0.000202477
      4       11          -0.003929278    0.005843741   -0.002308919
 -------------------------------------------------------------------
 Cartesian Forces:  Max     0.005843741 RMS     0.003554535
 Z-matrix is all fixed cartesians, so copy forces.
 Force constants in Cartesian coordinates: 
                1             2             3             4             5 
      1  0.100000D+01
      2  0.000000D+00  0.100000D+01
      3  0.000000D+00  0.000000D+00  0.100000D+01
      4  0.000000D+00  0.000000D+00  0.000000D+00  0.100000D+01
      5  0.000000D+00  0.000000D+00  0.000000D+00  0.000000D+00  0.100000D+01
      6  0.000000D+00  0.000000D+00  0.000000D+00  0.000000D+00  0.000000D+00
      7  0.000000D+00  0.000000D+00  0.000000D+00  0.000000D+00  0.000000D+00
      8  0.000000D+00  0.000000D+00  0.000000D+00  0.000000D+00  0.000000D+00
      9  0.000000D+00  0.000000D+00  0.000000D+00  0.000000D+00  0.000000D+00
     10  0.000000D+00  0.000000D+00  0.000000D+00  0.000000D+00  0.000000D+00
     11  0.000000D+00  0.000000D+00  0.000000D+00  0.000000D+00  0.000000D+00
     12  0.000000D+00  0.000000D+00  0.000000D+00  0.000000D+00  0.000000D+00
                6             7             8             9            10 
      6  0.100000D+01
      7  0.000000D+00  0.100000D+01
      8  0.000000D+00  0.000000D+00  0.100000D+01
      9  0.000000D+00  0.000000D+00  0.000000D+00  0.100000D+01
     10  0.000000D+00  0.000000D+00  0.000000D+00  0.000000D+00  0.100000D+01
     11  0.000000D+00  0.000000D+00  0.000000D+00  0.000000D+00  0.000000D+00
     12  0.000000D+00  0.000000D+00  0.000000D+00  0.000000D+00  0.000000D+00
               11            12 
     11  0.100000D+01
     12  0.000000D+00  0.100000D+01
 Leave Link  716 at Wed Aug 23 10:07:41 2023, MaxMem=  1610612736 cpu:               0.3 elap:               0.0
 (Enter /home/sekinelabo/g16/l103.exe)

 GradGradGradGradGradGradGradGradGradGradGradGradGradGradGradGradGradGrad
 Berny optimization.
 Search for a local minimum.
 Step number   1 out of a maximum of    2
 All quantities printed in internal units (Hartrees-Bohrs-Radians)
 Second derivative matrix not updated -- first step.
 The second derivative matrix:
                          X1        Y1        Z1        X2        Y2
           X1           1.00000
           Y1           0.00000   1.00000
           Z1          -0.00000  -0.00000   1.00000
           X2           0.00000   0.00000   0.00000   1.00000
           Y2           0.00000   0.00000   0.00000   0.00000   1.00000
           Z2           0.00000   0.00000   0.00000  -0.00000  -0.00000
           X3           0.00000   0.00000   0.00000   0.00000   0.00000
           Y3           0.00000   0.00000   0.00000   0.00000   0.00000
           Z3           0.00000   0.00000   0.00000   0.00000   0.00000
           X4           0.00000   0.00000   0.00000   0.00000   0.00000
           Y4           0.00000   0.00000   0.00000   0.00000   0.00000
           Z4           0.00000   0.00000   0.00000   0.00000   0.00000
                          Z2        X3        Y3        Z3        X4
           Z2           1.00000
           X3           0.00000   1.00000
           Y3           0.00000   0.00000   1.00000
           Z3           0.00000  -0.00000  -0.00000   1.00000
           X4           0.00000   0.00000   0.00000   0.00000   1.00000
           Y4           0.00000   0.00000   0.00000   0.00000   0.00000
           Z4           0.00000   0.00000   0.00000   0.00000  -0.00000
                          Y4        Z4
           Y4           1.00000
           Z4          -0.00000   1.00000
 ITU=  0
     Eigenvalues ---    1.00000   1.00000   1.00000   1.00000   1.00000
     Eigenvalues ---    1.00000   1.00000   1.00000   1.00000   1.00000
     Eigenvalues ---    1.00000   1.00000
 Angle between quadratic step and forces=   0.00 degrees.
 Linear search not attempted -- first point.
 B after Tr=     0.000000   -0.000000   -0.000000
         Rot=    1.000000    0.000000   -0.000000    0.000000 Ang=   0.00 deg.
 Variable       Old X    -DE/DX   Delta X   Delta X   Delta X     New X
                                 (Linear)    (Quad)   (Total)
    X1        0.00000  -0.00287   0.00000  -0.00287  -0.00287  -0.00287
    Y1        0.00000  -0.00008   0.00000  -0.00008  -0.00008  -0.00008
    Z1        0.00000  -0.00249   0.00000  -0.00249  -0.00249  -0.00249
    X2       -4.92331   0.00288   0.00000   0.00288   0.00288  -4.92043
    Y2        0.00000   0.00002   0.00000   0.00002   0.00002   0.00002
    Z2       -8.58035   0.00501   0.00000   0.00501   0.00501  -8.57534
    X3       -0.00000   0.00391   0.00000   0.00391   0.00391   0.00391
    Y3        0.00000  -0.00579   0.00000  -0.00579  -0.00579  -0.00579
    Z3        9.23687  -0.00020   0.00000  -0.00020  -0.00020   9.23667
    X4        4.44922  -0.00393   0.00000  -0.00393  -0.00393   4.44529
    Y4       -6.58533   0.00584   0.00000   0.00584   0.00584  -6.57948
    Z4       11.78785  -0.00231   0.00000  -0.00231  -0.00231  11.78554
         Item               Value     Threshold  Converged?
 Maximum Force            0.005844     0.000450     NO 
 RMS     Force            0.003555     0.000300     NO 
 Maximum Displacement     0.005844     0.001800     NO 
 RMS     Displacement     0.003555     0.001200     NO 
 Predicted change in Energy=-7.580831D-05
 GradGradGradGradGradGradGradGradGradGradGradGradGradGradGradGradGradGrad

 Leave Link  103 at Wed Aug 23 10:07:41 2023, MaxMem=  1610612736 cpu:               0.1 elap:               0.0
 (Enter /home/sekinelabo/g16/l9999.exe)
 1\1\GINC-SEKINELABO-XA7R-R37\Force\RB3LYP\6-311+G(d)\Na4\SEKINELABO\23
 -Aug-2023\0\\#p B3LYP/6-311+g(d) force\\\0,1\Na,0.,0.,0.\Na,-2.6053056
 363,0.,-4.540524207\Na,0.,0.,4.8879416883\Na,2.354425697,-3.4848041339
 ,6.2378612895\\Version=ES64L-G16RevB.01\State=1-A\HF=-649.1604133\RMSD
 =3.860e-09\RMSF=3.555e-03\Dipole=0.148067,-0.1873678,0.3282062\Quadrup
 ole=-2.0993127,-1.0553194,3.1546321,-4.3472313,5.1580318,-2.3609788\PG
 =C01 [X(Na4)]\\@


 A CHEMICAL PHYSICIST MAKES PRECISE MEASUREMENTS ON IMPURE COMPOUNDS.
 A THEORETICAL PHYSICAL CHEMIST MAKES IMPRECISE
     MEASUREMENTS ON PURE COMPOUNDS.
 AN EXPERIMENTAL PHYSICAL CHEMIST MAKES IMPRECISE
     MEASUREMENTS ON IMPURE COMPOUNDS.
 Job cpu time:       0 days  0 hours  0 minutes 35.2 seconds.
 Elapsed time:       0 days  0 hours  0 minutes  2.5 seconds.
 File lengths (MBytes):  RWF=     10 Int=      0 D2E=      0 Chk=      2 Scr=      1
 Normal termination of Gaussian 16 at Wed Aug 23 10:07:41 2023.
 Initial command:
 /home/sekinelabo/g16/l1.exe "/home/sekinelabo/g16temp/Gau-2966229.inp" -scrdir="/home/sekinelabo/g16temp/"
 Entering Link 1 = /home/sekinelabo/g16/l1.exe PID=   2966231.
  
 Copyright (c) 1988-2017, Gaussian, Inc.  All Rights Reserved.
  
 This is part of the Gaussian(R) 16 program.  It is based on
 the Gaussian(R) 09 system (copyright 2009, Gaussian, Inc.),
 the Gaussian(R) 03 system (copyright 2003, Gaussian, Inc.),
 the Gaussian(R) 98 system (copyright 1998, Gaussian, Inc.),
 the Gaussian(R) 94 system (copyright 1995, Gaussian, Inc.),
 the Gaussian 92(TM) system (copyright 1992, Gaussian, Inc.),
 the Gaussian 90(TM) system (copyright 1990, Gaussian, Inc.),
 the Gaussian 88(TM) system (copyright 1988, Gaussian, Inc.),
 the Gaussian 86(TM) system (copyright 1986, Carnegie Mellon
 University), and the Gaussian 82(TM) system (copyright 1983,
 Carnegie Mellon University). Gaussian is a federally registered
 trademark of Gaussian, Inc.
  
 This software contains proprietary and confidential information,
 including trade secrets, belonging to Gaussian, Inc.
  
 This software is provided under written license and may be
 used, copied, transmitted, or stored only in accord with that
 written license.
  
 The following legend is applicable only to US Government
 contracts under FAR:
  
                    RESTRICTED RIGHTS LEGEND
  
 Use, reproduction and disclosure by the US Government is
 subject to restrictions as set forth in subparagraphs (a)
 and (c) of the Commercial Computer Software - Restricted
 Rights clause in FAR 52.227-19.
  
 Gaussian, Inc.
 340 Quinnipiac St., Bldg. 40, Wallingford CT 06492
  
  
 ---------------------------------------------------------------
 Warning -- This program may not be used in any manner that
 competes with the business of Gaussian, Inc. or will provide
 assistance to any competitor of Gaussian, Inc.  The licensee
 of this program is prohibited from giving any competitor of
 Gaussian, Inc. access to this program.  By using this program,
 the user acknowledges that Gaussian, Inc. is engaged in the
 business of creating and licensing software in the field of
 computational chemistry and represents and warrants to the
 licensee that it is not a competitor of Gaussian, Inc. and that
 it will not use this program in any manner prohibited above.
 ---------------------------------------------------------------
  

 Cite this work as:
 Gaussian 16, Revision B.01,
 M. J. Frisch, G. W. Trucks, H. B. Schlegel, G. E. Scuseria, 
 M. A. Robb, J. R. Cheeseman, G. Scalmani, V. Barone, 
 G. A. Petersson, H. Nakatsuji, X. Li, M. Caricato, A. V. Marenich, 
 J. Bloino, B. G. Janesko, R. Gomperts, B. Mennucci, H. P. Hratchian, 
 J. V. Ortiz, A. F. Izmaylov, J. L. Sonnenberg, D. Williams-Young, 
 F. Ding, F. Lipparini, F. Egidi, J. Goings, B. Peng, A. Petrone, 
 T. Henderson, D. Ranasinghe, V. G. Zakrzewski, J. Gao, N. Rega, 
 G. Zheng, W. Liang, M. Hada, M. Ehara, K. Toyota, R. Fukuda, 
 J. Hasegawa, M. Ishida, T. Nakajima, Y. Honda, O. Kitao, H. Nakai, 
 T. Vreven, K. Throssell, J. A. Montgomery, Jr., J. E. Peralta, 
 F. Ogliaro, M. J. Bearpark, J. J. Heyd, E. N. Brothers, K. N. Kudin, 
 V. N. Staroverov, T. A. Keith, R. Kobayashi, J. Normand, 
 K. Raghavachari, A. P. Rendell, J. C. Burant, S. S. Iyengar, 
 J. Tomasi, M. Cossi, J. M. Millam, M. Klene, C. Adamo, R. Cammi, 
 J. W. Ochterski, R. L. Martin, K. Morokuma, O. Farkas, 
 J. B. Foresman, and D. J. Fox, Gaussian, Inc., Wallingford CT, 2016.
 
 ******************************************
 Gaussian 16:  ES64L-G16RevB.01 20-Dec-2017
                28-Aug-2023 
 ******************************************
 %NProcShared=16
 Will use up to   16 processors via shared memory.
 %mem=12GB
 %Chk=checkpoint.chk
 -------------------------
 #p B3LYP/6-311+g(d) force
 -------------------------
 1/10=7,30=1,38=1/1,3;
 2/12=2,17=6,18=5,40=1/2;
 3/5=4,6=6,7=11,11=2,25=1,30=1,71=1,74=-5/1,2,3;
 4//1;
 5/5=2,38=5/2;
 6/7=2,8=2,9=2,10=2,28=1/1;
 7/29=1/1,2,3,16;
 1/10=7,30=1/3;
 99//99;
 Leave Link    1 at Mon Aug 28 10:17:58 2023, MaxMem=  1610612736 cpu:               0.2 elap:               0.0
 (Enter /home/sekinelabo/g16/l101.exe)


 Symbolic Z-matrix:
 Charge =  0 Multiplicity = 1
 Na                    0.        0.        0. 
 Na                   -3.75941   0.       -1.44107 
 Na                    0.        0.        5.43669 
 Na                   -2.76849  -0.93979   3.42326 
 
 ITRead=  0  0  0  0
 MicOpt= -1 -1 -1 -1
 NAtoms=      4 NQM=        4 NQMF=       0 NMMI=      0 NMMIF=      0
                NMic=       0 NMicF=      0.
                    Isotopes and Nuclear Properties:
 (Nuclear quadrupole moments (NQMom) in fm**2, nuclear magnetic moments (NMagM)
  in nuclear magnetons)

  Atom         1           2           3           4
 IAtWgt=          23          23          23          23
 AtmWgt=  22.9897697  22.9897697  22.9897697  22.9897697
 NucSpn=           3           3           3           3
 AtZEff=  -0.0000000  -0.0000000  -0.0000000  -0.0000000
 NQMom=   10.4000000  10.4000000  10.4000000  10.4000000
 NMagM=    2.2175200   2.2175200   2.2175200   2.2175200
 AtZNuc=  11.0000000  11.0000000  11.0000000  11.0000000
 Leave Link  101 at Mon Aug 28 10:17:58 2023, MaxMem=  1610612736 cpu:               1.8 elap:               0.1
 (Enter /home/sekinelabo/g16/l103.exe)

 GradGradGradGradGradGradGradGradGradGradGradGradGradGradGradGradGradGrad
 Berny optimization.
 Initialization pass.
 Trust Radius=3.00D-01 FncErr=1.00D-07 GrdErr=1.00D-07 EigMax=2.50D+02 EigMin=1.00D-04
 Number of steps in this run=      2 maximum allowed number of steps=      2.
 GradGradGradGradGradGradGradGradGradGradGradGradGradGradGradGradGradGrad

 Leave Link  103 at Mon Aug 28 10:17:58 2023, MaxMem=  1610612736 cpu:               0.2 elap:               0.0
 (Enter /home/sekinelabo/g16/l202.exe)
                          Input orientation:                          
 ---------------------------------------------------------------------
 Center     Atomic      Atomic             Coordinates (Angstroms)
 Number     Number       Type             X           Y           Z
 ---------------------------------------------------------------------
      1         11           0        0.000000    0.000000    0.000000
      2         11           0       -3.759408    0.000000   -1.441069
      3         11           0        0.000000    0.000000    5.436685
      4         11           0       -2.768490   -0.939795    3.423259
 ---------------------------------------------------------------------
                    Distance matrix (angstroms):
                    1          2          3          4
     1  Na   0.000000
     2  Na   4.026143   0.000000
     3  Na   5.436685   7.838154   0.000000
     4  Na   4.501828   5.052408   3.549878   0.000000
 Stoichiometry    Na4
 Framework group  C1[X(Na4)]
 Deg. of freedom     6
 Full point group                 C1      NOp   1
 Largest Abelian subgroup         C1      NOp   1
 Largest concise Abelian subgroup C1      NOp   1
                         Standard orientation:                         
 ---------------------------------------------------------------------
 Center     Atomic      Atomic             Coordinates (Angstroms)
 Number     Number       Type             X           Y           Z
 ---------------------------------------------------------------------
      1         11           0        1.174853    2.174670    0.221484
      2         11           0        3.836731   -0.805226   -0.272944
      3         11           0       -3.917012    0.341704   -0.298794
      4         11           0       -1.094572   -1.711148    0.350254
 ---------------------------------------------------------------------
 Rotational constants (GHZ):           2.5100585           0.6666019           0.5353267
 Leave Link  202 at Mon Aug 28 10:17:58 2023, MaxMem=  1610612736 cpu:               0.0 elap:               0.0
 (Enter /home/sekinelabo/g16/l301.exe)
 Standard basis: 6-311+G(d) (5D, 7F)
 Ernie: Thresh=  0.10000D-02 Tol=  0.10000D-05 Strict=F.
 There are   124 symmetry adapted cartesian basis functions of A   symmetry.
 There are   120 symmetry adapted basis functions of A   symmetry.
   120 basis functions,   200 primitive gaussians,   124 cartesian basis functions
    22 alpha electrons       22 beta electrons
       nuclear repulsion energy        80.7840450881 Hartrees.
 IExCor=  402 DFT=T Ex+Corr=B3LYP ExCW=0 ScaHFX=  0.200000
 ScaDFX=  0.800000  0.720000  1.000000  0.810000 ScalE2=  1.000000  1.000000
 IRadAn=      5 IRanWt=     -1 IRanGd=            0 ICorTp=0 IEmpDi=  4
 NAtoms=    4 NActive=    4 NUniq=    4 SFac= 1.00D+00 NAtFMM=   60 NAOKFM=F Big=F
 Integral buffers will be    131072 words long.
 Raffenetti 2 integral format.
 Two-electron integral symmetry is turned on.
 Leave Link  301 at Mon Aug 28 10:17:58 2023, MaxMem=  1610612736 cpu:               0.4 elap:               0.0
 (Enter /home/sekinelabo/g16/l302.exe)
 NPDir=0 NMtPBC=     1 NCelOv=     1 NCel=       1 NClECP=     1 NCelD=      1
         NCelK=      1 NCelE2=     1 NClLst=     1 CellRange=     0.0.
 One-electron integrals computed using PRISM.
 One-electron integral symmetry used in STVInt
 NBasis=   120 RedAO= T EigKep=  1.69D-04  NBF=   120
 NBsUse=   120 1.00D-06 EigRej= -1.00D+00 NBFU=   120
 Precomputing XC quadrature grid using
 IXCGrd= 4 IRadAn=           5 IRanWt=          -1 IRanGd=           0 AccXCQ= 0.00D+00.
 Generated NRdTot=       0 NPtTot=           0 NUsed=           0 NTot=          32
 NSgBfM=   117   117   117   117   117 MxSgAt=     4 MxSgA2=     4.
 Leave Link  302 at Mon Aug 28 10:17:58 2023, MaxMem=  1610612736 cpu:               1.4 elap:               0.1
 (Enter /home/sekinelabo/g16/l303.exe)
 DipDrv:  MaxL=1.
 Leave Link  303 at Mon Aug 28 10:17:58 2023, MaxMem=  1610612736 cpu:               0.3 elap:               0.0
 (Enter /home/sekinelabo/g16/l401.exe)
 ExpMin= 7.60D-03 ExpMax= 3.62D+04 ExpMxC= 1.21D+03 IAcc=3 IRadAn=         5 AccDes= 0.00D+00
 Harris functional with IExCor=  402 and IRadAn=       5 diagonalized for initial guess.
 HarFok:  IExCor=  402 AccDes= 0.00D+00 IRadAn=         5 IDoV= 1 UseB2=F ITyADJ=14
 ICtDFT=  3500011 ScaDFX=  1.000000  1.000000  1.000000  1.000000
 FoFCou: FMM=F IPFlag=           0 FMFlag=      100000 FMFlg1=           0
         NFxFlg=           0 DoJE=T BraDBF=F KetDBF=T FulRan=T
         wScrn=  0.000000 ICntrl=       500 IOpCl=  0 I1Cent=   200000004 NGrid=           0
         NMat0=    1 NMatS0=      1 NMatT0=    0 NMatD0=    1 NMtDS0=    0 NMtDT0=    0
 Petite list used in FoFCou.
 Harris En= -649.064016832720    
 JPrj=0 DoOrth=F DoCkMO=F.
 Leave Link  401 at Mon Aug 28 10:17:58 2023, MaxMem=  1610612736 cpu:               2.0 elap:               0.1
 (Enter /home/sekinelabo/g16/l502.exe)
 Keep R1 ints in memory in canonical form, NReq=41581754.
 FoFCou: FMM=F IPFlag=           0 FMFlag=           0 FMFlg1=           0
         NFxFlg=           0 DoJE=F BraDBF=F KetDBF=F FulRan=T
         wScrn=  0.000000 ICntrl=       600 IOpCl=  0 I1Cent=           0 NGrid=           0
         NMat0=    1 NMatS0=   7260 NMatT0=    0 NMatD0=    1 NMtDS0=    0 NMtDT0=    0
 Symmetry not used in FoFCou.
 Two-electron integral symmetry not used.
 Closed shell SCF:
 Using DIIS extrapolation, IDIIS=  1040.
 NGot=  1610612736 LenX=  1584221388 LenY=  1584205571
 Requested convergence on RMS density matrix=1.00D-08 within 128 cycles.
 Requested convergence on MAX density matrix=1.00D-06.
 Requested convergence on             energy=1.00D-06.
 No special actions if energy rises.

 Cycle   1  Pass 1  IDiag  1:
 E= -649.177563324265    
 DIIS: error= 1.14D-02 at cycle   1 NSaved=   1.
 NSaved= 1 IEnMin= 1 EnMin= -649.177563324265     IErMin= 1 ErrMin= 1.14D-02
 ErrMax= 1.14D-02  0.00D+00 EMaxC= 1.00D-01 BMatC= 2.66D-02 BMatP= 2.66D-02
 IDIUse=3 WtCom= 8.86D-01 WtEn= 1.14D-01
 Coeff-Com:  0.100D+01
 Coeff-En:   0.100D+01
 Coeff:      0.100D+01
 Gap=     0.040 Goal=   None    Shift=    0.000
 GapD=    0.040 DampG=0.250 DampE=0.500 DampFc=0.2500 IDamp=-1.
 Damping current iteration by 2.50D-01
 RMSDP=2.23D-03 MaxDP=7.14D-02              OVMax= 9.41D-02

 Cycle   2  Pass 1  IDiag  1:
 E= -649.181885628294     Delta-E=       -0.004322304028 Rises=F Damp=T
 DIIS: error= 8.21D-03 at cycle   2 NSaved=   2.
 NSaved= 2 IEnMin= 2 EnMin= -649.181885628294     IErMin= 2 ErrMin= 8.21D-03
 ErrMax= 8.21D-03  0.00D+00 EMaxC= 1.00D-01 BMatC= 1.03D-02 BMatP= 2.66D-02
 IDIUse=3 WtCom= 9.18D-01 WtEn= 8.21D-02
 Coeff-Com: -0.131D+01 0.231D+01
 Coeff-En:   0.000D+00 0.100D+01
 Coeff:     -0.120D+01 0.220D+01
 Gap=     0.042 Goal=   None    Shift=    0.000
 RMSDP=1.74D-03 MaxDP=5.82D-02 DE=-4.32D-03 OVMax= 4.51D-02

 Cycle   3  Pass 1  IDiag  1:
 E= -649.190933955674     Delta-E=       -0.009048327381 Rises=F Damp=F
 DIIS: error= 2.90D-04 at cycle   3 NSaved=   3.
 NSaved= 3 IEnMin= 3 EnMin= -649.190933955674     IErMin= 3 ErrMin= 2.90D-04
 ErrMax= 2.90D-04  0.00D+00 EMaxC= 1.00D-01 BMatC= 1.62D-05 BMatP= 1.03D-02
 IDIUse=3 WtCom= 9.97D-01 WtEn= 2.90D-03
 Coeff-Com:  0.180D-01-0.186D-01 0.100D+01
 Coeff-En:   0.000D+00 0.000D+00 0.100D+01
 Coeff:      0.179D-01-0.186D-01 0.100D+01
 Gap=     0.043 Goal=   None    Shift=    0.000
 RMSDP=4.45D-04 MaxDP=2.46D-02 DE=-9.05D-03 OVMax= 2.94D-02

 Cycle   4  Pass 1  IDiag  1:
 E= -649.190815060069     Delta-E=        0.000118895606 Rises=F Damp=F
 DIIS: error= 4.79D-04 at cycle   4 NSaved=   4.
 NSaved= 4 IEnMin= 3 EnMin= -649.190933955674     IErMin= 3 ErrMin= 2.90D-04
 ErrMax= 4.79D-04  0.00D+00 EMaxC= 1.00D-01 BMatC= 3.62D-05 BMatP= 1.62D-05
 IDIUse=3 WtCom= 3.14D-01 WtEn= 6.86D-01
 Coeff-Com:  0.159D-01-0.204D-01 0.624D+00 0.381D+00
 Coeff-En:   0.000D+00 0.000D+00 0.701D+00 0.299D+00
 Coeff:      0.498D-02-0.638D-02 0.677D+00 0.325D+00
 Gap=     0.043 Goal=   None    Shift=    0.000
 RMSDP=2.44D-04 MaxDP=1.44D-02 DE= 1.19D-04 OVMax= 1.87D-02

 Cycle   5  Pass 1  IDiag  1:
 E= -649.191008401326     Delta-E=       -0.000193341257 Rises=F Damp=F
 DIIS: error= 6.69D-05 at cycle   5 NSaved=   5.
 NSaved= 5 IEnMin= 5 EnMin= -649.191008401326     IErMin= 5 ErrMin= 6.69D-05
 ErrMax= 6.69D-05  0.00D+00 EMaxC= 1.00D-01 BMatC= 1.01D-06 BMatP= 1.62D-05
 IDIUse=1 WtCom= 1.00D+00 WtEn= 0.00D+00
 Coeff-Com: -0.300D-02 0.351D-02 0.201D+00 0.670D-01 0.732D+00
 Coeff:     -0.300D-02 0.351D-02 0.201D+00 0.670D-01 0.732D+00
 Gap=     0.043 Goal=   None    Shift=    0.000
 RMSDP=4.80D-05 MaxDP=2.81D-03 DE=-1.93D-04 OVMax= 2.51D-03

 Cycle   6  Pass 1  IDiag  1:
 E= -649.191009647086     Delta-E=       -0.000001245761 Rises=F Damp=F
 DIIS: error= 3.39D-05 at cycle   6 NSaved=   6.
 NSaved= 6 IEnMin= 6 EnMin= -649.191009647086     IErMin= 6 ErrMin= 3.39D-05
 ErrMax= 3.39D-05  0.00D+00 EMaxC= 1.00D-01 BMatC= 2.33D-07 BMatP= 1.01D-06
 IDIUse=1 WtCom= 1.00D+00 WtEn= 0.00D+00
 Coeff-Com: -0.345D-02 0.413D-02 0.480D-01-0.874D-02 0.382D+00 0.578D+00
 Coeff:     -0.345D-02 0.413D-02 0.480D-01-0.874D-02 0.382D+00 0.578D+00
 Gap=     0.043 Goal=   None    Shift=    0.000
 RMSDP=1.95D-05 MaxDP=9.60D-04 DE=-1.25D-06 OVMax= 1.37D-03

 Cycle   7  Pass 1  IDiag  1:
 E= -649.191010533597     Delta-E=       -0.000000886511 Rises=F Damp=F
 DIIS: error= 6.55D-06 at cycle   7 NSaved=   7.
 NSaved= 7 IEnMin= 7 EnMin= -649.191010533597     IErMin= 7 ErrMin= 6.55D-06
 ErrMax= 6.55D-06  0.00D+00 EMaxC= 1.00D-01 BMatC= 6.37D-09 BMatP= 2.33D-07
 IDIUse=1 WtCom= 1.00D+00 WtEn= 0.00D+00
 Coeff-Com: -0.571D-03 0.686D-03-0.116D-01-0.729D-02-0.194D-01 0.103D+00
 Coeff-Com:  0.935D+00
 Coeff:     -0.571D-03 0.686D-03-0.116D-01-0.729D-02-0.194D-01 0.103D+00
 Coeff:      0.935D+00
 Gap=     0.043 Goal=   None    Shift=    0.000
 RMSDP=4.91D-06 MaxDP=2.36D-04 DE=-8.87D-07 OVMax= 3.22D-04

 Cycle   8  Pass 1  IDiag  1:
 E= -649.191010565216     Delta-E=       -0.000000031619 Rises=F Damp=F
 DIIS: error= 1.86D-06 at cycle   8 NSaved=   8.
 NSaved= 8 IEnMin= 8 EnMin= -649.191010565216     IErMin= 8 ErrMin= 1.86D-06
 ErrMax= 1.86D-06  0.00D+00 EMaxC= 1.00D-01 BMatC= 7.27D-10 BMatP= 6.37D-09
 IDIUse=1 WtCom= 1.00D+00 WtEn= 0.00D+00
 Coeff-Com:  0.221D-03-0.298D-03-0.470D-02-0.947D-03-0.300D-01-0.978D-02
 Coeff-Com:  0.295D+00 0.750D+00
 Coeff:      0.221D-03-0.298D-03-0.470D-02-0.947D-03-0.300D-01-0.978D-02
 Coeff:      0.295D+00 0.750D+00
 Gap=     0.043 Goal=   None    Shift=    0.000
 RMSDP=1.28D-06 MaxDP=4.88D-05 DE=-3.16D-08 OVMax= 9.69D-05

 Cycle   9  Pass 1  IDiag  1:
 E= -649.191010567422     Delta-E=       -0.000000002206 Rises=F Damp=F
 DIIS: error= 6.70D-07 at cycle   9 NSaved=   9.
 NSaved= 9 IEnMin= 9 EnMin= -649.191010567422     IErMin= 9 ErrMin= 6.70D-07
 ErrMax= 6.70D-07  0.00D+00 EMaxC= 1.00D-01 BMatC= 7.77D-11 BMatP= 7.27D-10
 IDIUse=1 WtCom= 1.00D+00 WtEn= 0.00D+00
 Coeff-Com:  0.175D-03-0.228D-03-0.200D-03-0.191D-03-0.706D-02-0.960D-02
 Coeff-Com: -0.265D-01 0.195D+00 0.848D+00
 Coeff:      0.175D-03-0.228D-03-0.200D-03-0.191D-03-0.706D-02-0.960D-02
 Coeff:     -0.265D-01 0.195D+00 0.848D+00
 Gap=     0.043 Goal=   None    Shift=    0.000
 RMSDP=5.78D-07 MaxDP=2.37D-05 DE=-2.21D-09 OVMax= 2.46D-05

 Cycle  10  Pass 1  IDiag  1:
 E= -649.191010567820     Delta-E=       -0.000000000398 Rises=F Damp=F
 DIIS: error= 1.12D-07 at cycle  10 NSaved=  10.
 NSaved=10 IEnMin=10 EnMin= -649.191010567820     IErMin=10 ErrMin= 1.12D-07
 ErrMax= 1.12D-07  0.00D+00 EMaxC= 1.00D-01 BMatC= 8.34D-13 BMatP= 7.77D-11
 IDIUse=1 WtCom= 1.00D+00 WtEn= 0.00D+00
 Coeff-Com:  0.954D-05-0.118D-04 0.118D-03-0.458D-04 0.524D-04-0.808D-03
 Coeff-Com: -0.118D-01 0.368D-02 0.111D+00 0.898D+00
 Coeff:      0.954D-05-0.118D-04 0.118D-03-0.458D-04 0.524D-04-0.808D-03
 Coeff:     -0.118D-01 0.368D-02 0.111D+00 0.898D+00
 Gap=     0.043 Goal=   None    Shift=    0.000
 RMSDP=7.56D-08 MaxDP=1.91D-06 DE=-3.98D-10 OVMax= 7.22D-06

 Cycle  11  Pass 1  IDiag  1:
 E= -649.191010567837     Delta-E=       -0.000000000017 Rises=F Damp=F
 DIIS: error= 2.48D-08 at cycle  11 NSaved=  11.
 NSaved=11 IEnMin=11 EnMin= -649.191010567837     IErMin=11 ErrMin= 2.48D-08
 ErrMax= 2.48D-08  0.00D+00 EMaxC= 1.00D-01 BMatC= 1.23D-13 BMatP= 8.34D-13
 IDIUse=1 WtCom= 1.00D+00 WtEn= 0.00D+00
 Coeff-Com: -0.142D-04 0.187D-04 0.319D-04-0.126D-04 0.607D-03 0.542D-03
 Coeff-Com: -0.772D-03-0.145D-01-0.509D-01 0.191D+00 0.874D+00
 Coeff:     -0.142D-04 0.187D-04 0.319D-04-0.126D-04 0.607D-03 0.542D-03
 Coeff:     -0.772D-03-0.145D-01-0.509D-01 0.191D+00 0.874D+00
 Gap=     0.043 Goal=   None    Shift=    0.000
 RMSDP=2.66D-08 MaxDP=7.33D-07 DE=-1.74D-11 OVMax= 2.40D-06

 Cycle  12  Pass 1  IDiag  1:
 E= -649.191010567836     Delta-E=        0.000000000001 Rises=F Damp=F
 DIIS: error= 1.39D-08 at cycle  12 NSaved=  12.
 NSaved=12 IEnMin=11 EnMin= -649.191010567837     IErMin=12 ErrMin= 1.39D-08
 ErrMax= 1.39D-08  0.00D+00 EMaxC= 1.00D-01 BMatC= 1.28D-14 BMatP= 1.23D-13
 IDIUse=1 WtCom= 1.00D+00 WtEn= 0.00D+00
 Coeff-Com: -0.541D-05 0.706D-05 0.287D-05-0.727D-05 0.194D-03 0.304D-03
 Coeff-Com:  0.544D-03-0.548D-02-0.257D-01 0.993D-02 0.242D+00 0.779D+00
 Coeff:     -0.541D-05 0.706D-05 0.287D-05-0.727D-05 0.194D-03 0.304D-03
 Coeff:      0.544D-03-0.548D-02-0.257D-01 0.993D-02 0.242D+00 0.779D+00
 Gap=     0.043 Goal=   None    Shift=    0.000
 RMSDP=7.79D-09 MaxDP=3.09D-07 DE= 9.09D-13 OVMax= 5.21D-07

 SCF Done:  E(RB3LYP) =  -649.191010568     A.U. after   12 cycles
            NFock= 12  Conv=0.78D-08     -V/T= 2.0030
 KE= 6.472301174397D+02 PE=-1.720724755346D+03 EE= 3.435195822500D+02
 Leave Link  502 at Mon Aug 28 10:18:00 2023, MaxMem=  1610612736 cpu:              18.8 elap:               1.3
 (Enter /home/sekinelabo/g16/l601.exe)
 Copying SCF densities to generalized density rwf, IOpCl= 0 IROHF=0.

 **********************************************************************

            Population analysis using the SCF Density.

 **********************************************************************

 Orbital symmetries:
       Occupied  (A) (A) (A) (A) (A) (A) (A) (A) (A) (A) (A) (A)
                 (A) (A) (A) (A) (A) (A) (A) (A) (A) (A)
       Virtual   (A) (A) (A) (A) (A) (A) (A) (A) (A) (A) (A) (A)
                 (A) (A) (A) (A) (A) (A) (A) (A) (A) (A) (A) (A)
                 (A) (A) (A) (A) (A) (A) (A) (A) (A) (A) (A) (A)
                 (A) (A) (A) (A) (A) (A) (A) (A) (A) (A) (A) (A)
                 (A) (A) (A) (A) (A) (A) (A) (A) (A) (A) (A) (A)
                 (A) (A) (A) (A) (A) (A) (A) (A) (A) (A) (A) (A)
                 (A) (A) (A) (A) (A) (A) (A) (A) (A) (A) (A) (A)
                 (A) (A) (A) (A) (A) (A) (A) (A) (A) (A) (A) (A)
                 (A) (A)
 The electronic state is 1-A.
 Alpha  occ. eigenvalues --  -38.46084 -38.44872 -38.44769 -38.43760  -2.21770
 Alpha  occ. eigenvalues --   -2.20598  -2.20476  -2.19500  -1.15461  -1.15430
 Alpha  occ. eigenvalues --   -1.15390  -1.14287  -1.14260  -1.14217  -1.14157
 Alpha  occ. eigenvalues --   -1.14156  -1.14095  -1.13175  -1.13174  -1.13126
 Alpha  occ. eigenvalues --   -0.13700  -0.11291
 Alpha virt. eigenvalues --   -0.06996  -0.05811  -0.02828  -0.02532  -0.01796
 Alpha virt. eigenvalues --   -0.01554  -0.01128  -0.00222   0.00126   0.00323
 Alpha virt. eigenvalues --    0.00580   0.00730   0.00772   0.00981   0.01365
 Alpha virt. eigenvalues --    0.01391   0.01648   0.01753   0.01847   0.02225
 Alpha virt. eigenvalues --    0.02366   0.02525   0.02579   0.02736   0.02805
 Alpha virt. eigenvalues --    0.03065   0.03125   0.03322   0.03823   0.04671
 Alpha virt. eigenvalues --    0.06569   0.07044   0.07547   0.07793   0.08179
 Alpha virt. eigenvalues --    0.08437   0.08843   0.09018   0.09552   0.09840
 Alpha virt. eigenvalues --    0.10074   0.10676   0.11187   0.11699   0.12868
 Alpha virt. eigenvalues --    0.14403   0.30200   0.30748   0.30926   0.31627
 Alpha virt. eigenvalues --    0.32143   0.32536   0.33488   0.34246   0.35526
 Alpha virt. eigenvalues --    0.35850   0.36037   0.36593   0.37458   0.38121
 Alpha virt. eigenvalues --    0.39115   0.39383   0.41307   0.42718   0.42938
 Alpha virt. eigenvalues --    0.43535   0.43707   0.44250   0.44521   0.44695
 Alpha virt. eigenvalues --    0.45249   0.46744   0.47578   0.48648   0.49074
 Alpha virt. eigenvalues --    0.50838   0.50966   0.57578   2.00116   2.02939
 Alpha virt. eigenvalues --    2.06687   2.11552   4.43069   4.43149   4.43478
 Alpha virt. eigenvalues --    4.43967   4.44414   4.44722   4.45087   4.45330
 Alpha virt. eigenvalues --    4.45682   4.47566   4.48088   4.49470  96.19003
 Alpha virt. eigenvalues --   96.22130  96.26636  96.32472
          Condensed to atoms (all electrons):
               1          2          3          4
     1  Na  10.707792   0.276972  -0.067325   0.053365
     2  Na   0.276972  10.833427  -0.061898  -0.049000
     3  Na  -0.067325  -0.061898  10.804605   0.321962
     4  Na   0.053365  -0.049000   0.321962  10.706025
 Mulliken charges:
               1
     1  Na   0.029196
     2  Na   0.000499
     3  Na   0.002656
     4  Na  -0.032352
 Sum of Mulliken charges =  -0.00000
 Mulliken charges with hydrogens summed into heavy atoms:
               1
     1  Na   0.029196
     2  Na   0.000499
     3  Na   0.002656
     4  Na  -0.032352
 Electronic spatial extent (au):  <R**2>=           1712.9650
 Charge=              0.0000 electrons
 Dipole moment (field-independent basis, Debye):
    X=              0.4852    Y=              0.4480    Z=              0.0603  Tot=              0.6632
 Quadrupole moment (field-independent basis, Debye-Ang):
   XX=            -41.5304   YY=            -30.3560   ZZ=            -44.7449
   XY=             -8.5617   XZ=              0.4163   YZ=             -0.1269
 Traceless Quadrupole moment (field-independent basis, Debye-Ang):
   XX=             -2.6533   YY=              8.5211   ZZ=             -5.8678
   XY=             -8.5617   XZ=              0.4163   YZ=             -0.1269
 Octapole moment (field-independent basis, Debye-Ang**2):
  XXX=             -4.6091  YYY=             12.6083  ZZZ=              1.0360  XYY=              7.5991
  XXY=             -3.8432  XXZ=            -13.4441  XZZ=              0.3628  YZZ=              0.4693
  YYZ=              4.6103  XYZ=              4.2318
 Hexadecapole moment (field-independent basis, Debye-Ang**3):
 XXXX=          -2036.4853 YYYY=           -544.0324 ZZZZ=           -215.2504 XXXY=           -210.1504
 XXXZ=             11.6007 YYYX=            -20.1100 YYYZ=              0.5248 ZZZX=              2.1200
 ZZZY=             -0.8394 XXYY=           -501.3252 XXZZ=           -440.2994 YYZZ=           -136.9172
 XXYZ=              3.1083 YYXZ=             -0.2520 ZZXY=            -14.3273
 N-N= 8.078404508809D+01 E-N=-1.720724756846D+03  KE= 6.472301174397D+02
 No NMR shielding tensors so no spin-rotation constants.
 Leave Link  601 at Mon Aug 28 10:18:00 2023, MaxMem=  1610612736 cpu:               0.9 elap:               0.1
 (Enter /home/sekinelabo/g16/l701.exe)
 ... and contract with generalized density number  0.
 Compute integral first derivatives.
 Leave Link  701 at Mon Aug 28 10:18:00 2023, MaxMem=  1610612736 cpu:               1.3 elap:               0.1
 (Enter /home/sekinelabo/g16/l702.exe)
 L702 exits ... SP integral derivatives will be done elsewhere.
 Leave Link  702 at Mon Aug 28 10:18:00 2023, MaxMem=  1610612736 cpu:               0.3 elap:               0.0
 (Enter /home/sekinelabo/g16/l703.exe)
 Integral derivatives from FoFJK, PRISM(SPDF).
 Compute integral first derivatives, UseDBF=F ICtDFT=           0.
 Calling FoFJK, ICntrl=      2127 FMM=F ISym2X=0 I1Cent= 0 IOpClX= 0 NMat=1 NMatS=1 NMatT=0.
 FoFJK:  IHMeth= 1 ICntrl=    2127 DoSepK=F KAlg= 0 I1Cent=           0 FoldK=F
 IRaf=         0 NMat=       1 IRICut=       1 DoRegI=T DoRafI=F ISym2E= 0 IDoP0=0 IntGTp=1.
 FoFCou: FMM=F IPFlag=           0 FMFlag=      100000 FMFlg1=         800
         NFxFlg=           0 DoJE=F BraDBF=F KetDBF=F FulRan=T
         wScrn=  0.000000 ICntrl=      2127 IOpCl=  0 I1Cent=           0 NGrid=           0
         NMat0=    1 NMatS0=      1 NMatT0=    0 NMatD0=    1 NMtDS0=    0 NMtDT0=    0
 Symmetry not used in FoFCou.
 Leave Link  703 at Mon Aug 28 10:18:00 2023, MaxMem=  1610612736 cpu:               6.2 elap:               0.4
 (Enter /home/sekinelabo/g16/l716.exe)
 Dipole        = 1.90903298D-01 1.76274019D-01 2.37066033D-02
 ***** Axes restored to original set *****
 -------------------------------------------------------------------
 Center     Atomic                   Forces (Hartrees/Bohr)
 Number     Number              X              Y              Z
 -------------------------------------------------------------------
      1       11          -0.009026384   -0.000511203   -0.000655355
      2       11           0.007156788   -0.000123083    0.002616982
      3       11          -0.004507266   -0.001697719   -0.003099870
      4       11           0.006376862    0.002332005    0.001138244
 -------------------------------------------------------------------
 Cartesian Forces:  Max     0.009026384 RMS     0.004286169
 Z-matrix is all fixed cartesians, so copy forces.
 Force constants in Cartesian coordinates: 
                1             2             3             4             5 
      1  0.889013D-02
      2  0.000000D+00  0.000000D+00
      3  0.340779D-02  0.000000D+00  0.130629D-02
      4 -0.889013D-02  0.000000D+00 -0.340779D-02  0.889013D-02
      5  0.000000D+00  0.000000D+00  0.000000D+00  0.000000D+00  0.000000D+00
      6 -0.340779D-02  0.000000D+00 -0.130629D-02  0.340779D-02  0.000000D+00
      7  0.000000D+00  0.000000D+00  0.000000D+00  0.000000D+00  0.000000D+00
      8  0.000000D+00  0.000000D+00  0.000000D+00  0.000000D+00  0.000000D+00
      9  0.000000D+00  0.000000D+00  0.000000D+00  0.000000D+00  0.000000D+00
     10  0.000000D+00  0.000000D+00  0.000000D+00  0.000000D+00  0.000000D+00
     11  0.000000D+00  0.000000D+00  0.000000D+00  0.000000D+00  0.000000D+00
     12  0.000000D+00  0.000000D+00  0.000000D+00  0.000000D+00  0.000000D+00
                6             7             8             9            10 
      6  0.130629D-02
      7  0.000000D+00  0.105553D-01
      8  0.000000D+00  0.358311D-02  0.121633D-02
      9  0.000000D+00  0.767650D-02  0.260587D-02  0.558285D-02
     10  0.000000D+00 -0.105553D-01 -0.358311D-02 -0.767650D-02  0.105553D-01
     11  0.000000D+00 -0.358311D-02 -0.121633D-02 -0.260587D-02  0.358311D-02
     12  0.000000D+00 -0.767650D-02 -0.260587D-02 -0.558285D-02  0.767650D-02
               11            12 
     11  0.121633D-02
     12  0.260587D-02  0.558285D-02
 Leave Link  716 at Mon Aug 28 10:18:00 2023, MaxMem=  1610612736 cpu:               0.3 elap:               0.0
 (Enter /home/sekinelabo/g16/l103.exe)

 GradGradGradGradGradGradGradGradGradGradGradGradGradGradGradGradGradGrad
 Berny optimization.
 Search for a local minimum.
 Step number   1 out of a maximum of    2
 All quantities printed in internal units (Hartrees-Bohrs-Radians)
 Second derivative matrix not updated -- first step.
 The second derivative matrix:
                          X1        Y1        Z1        X2        Y2
           X1           0.00889
           Y1           0.00000   0.00000
           Z1           0.00341  -0.00000   0.00131
           X2          -0.00889   0.00000  -0.00341   0.00889
           Y2           0.00000   0.00000  -0.00000   0.00000   0.00000
           Z2          -0.00341   0.00000  -0.00131   0.00341  -0.00000
           X3           0.00000   0.00000   0.00000   0.00000   0.00000
           Y3           0.00000   0.00000   0.00000   0.00000   0.00000
           Z3           0.00000   0.00000   0.00000   0.00000   0.00000
           X4           0.00000   0.00000   0.00000   0.00000   0.00000
           Y4           0.00000   0.00000   0.00000   0.00000   0.00000
           Z4           0.00000   0.00000   0.00000   0.00000   0.00000
                          Z2        X3        Y3        Z3        X4
           Z2           0.00131
           X3           0.00000   0.01056
           Y3           0.00000   0.00358   0.00122
           Z3           0.00000   0.00768   0.00261   0.00558
           X4           0.00000  -0.01056  -0.00358  -0.00768   0.01056
           Y4           0.00000  -0.00358  -0.00122  -0.00261   0.00358
           Z4           0.00000  -0.00768  -0.00261  -0.00558   0.00768
                          Y4        Z4
           Y4           0.00122
           Z4           0.00261   0.00558
 ITU=  0
     Eigenvalues ---   -0.00000  -0.00000  -0.00000   0.00000   0.02039
     Eigenvalues ---    0.03471
 Eigenvalue     1 is  -3.33D-16 should be greater than     0.000000 Eigenvector:
                          Z2        Z3        X1        X4        Y4
   1                    0.61570  -0.51009   0.37509  -0.35895  -0.17918
                          X3        Y3        X2        Z4        Z1
   1                   -0.13743   0.13425   0.12129  -0.05920  -0.04641
 Eigenvalue     2 is  -2.22D-16 should be greater than     0.000000 Eigenvector:
                          Y4        Y3        Y2        Z1        Y1
   1                    0.47790  -0.42773  -0.41201  -0.37458   0.36184
                          X4        X1        Z3        Z2        Z4
   1                   -0.24032   0.20109   0.15969   0.11303   0.10185
 Eigenvalue     3 is  -1.11D-16 should be greater than     0.000000 Eigenvector:
                          Z4        Z2        X4        Z3        X3
   1                    0.68505  -0.42182  -0.38462  -0.26069   0.22719
                          Y4        X2        Y1        Y2        Y3
   1                   -0.20153   0.15908   0.12694   0.05226   0.02233
 Eigenvalue     4 is   2.22D-16 Eigenvector:
                          Z1        Z3        Y4        Z4        Y2
   1                    0.68965  -0.40944   0.28692  -0.23276  -0.23036
                          X3        X1        Y3        Y1        X4
   1                    0.21802  -0.21215  -0.20149   0.14493  -0.07627
 Quadratic step=4.049D+01 exceeds max=3.000D-01 adjusted using Lamda=-2.932D-02.
 Angle between NR and scaled steps=  61.84 degrees.
 Angle between quadratic step and forces=  13.01 degrees.
 Linear search not attempted -- first point.
 B after Tr=    -0.000000   -0.000000    0.000000
         Rot=    1.000000    0.000000   -0.000000    0.000000 Ang=   0.00 deg.
 Variable       Old X    -DE/DX   Delta X   Delta X   Delta X     New X
                                 (Linear)    (Quad)   (Total)
    X1        0.00000  -0.00903   0.00000  -0.20133  -0.20133  -0.20133
    Y1        0.00000  -0.00051   0.00000  -0.01737  -0.01737  -0.01737
    Z1       -0.00000  -0.00066   0.00000   0.01815   0.01815   0.01815
    X2       -7.10425   0.00716   0.00000   0.13779   0.13779  -6.96647
    Y2        0.00000  -0.00012   0.00000  -0.00419  -0.00419  -0.00419
    Z2       -2.72323   0.00262   0.00000   0.04852   0.04852  -2.67471
    X3        0.00000  -0.00451   0.00000  -0.06753  -0.06753  -0.06753
    Y3       -0.00000  -0.00170   0.00000  -0.02862  -0.02862  -0.02862
    Z3       10.27385  -0.00310   0.00000  -0.04305  -0.04305  10.23079
    X4       -5.23169   0.00638   0.00000   0.13107   0.13107  -5.10062
    Y4       -1.77595   0.00233   0.00000   0.05018   0.05018  -1.72578
    Z4        6.46902   0.00114   0.00000  -0.02362  -0.02362   6.44540
         Item               Value     Threshold  Converged?
 Maximum Force            0.009026     0.000450     NO 
 RMS     Force            0.004286     0.000300     NO 
 Maximum Displacement     0.201325     0.001800     NO 
 RMS     Displacement     0.086606     0.001200     NO 
 Predicted change in Energy=-3.490635D-03
 GradGradGradGradGradGradGradGradGradGradGradGradGradGradGradGradGradGrad

 Leave Link  103 at Mon Aug 28 10:18:00 2023, MaxMem=  1610612736 cpu:               0.2 elap:               0.0
 (Enter /home/sekinelabo/g16/l9999.exe)
 1\1\GINC-SEKINELABO-XA7R-R37\Force\RB3LYP\6-311+G(d)\Na4\SEKINELABO\28
 -Aug-2023\0\\#p B3LYP/6-311+g(d) force\\\0,1\Na,0.,0.,0.\Na,-3.7594080
 294,0.,-1.4410690679\Na,0.,0.,5.4366854602\Na,-2.7684897092,-0.9397945
 417,3.423259239\\Version=ES64L-G16RevB.01\State=1-A\HF=-649.1910106\RM
 SD=7.789e-09\RMSF=4.286e-03\Dipole=0.099858,0.0164146,-0.2404944\Quadr
 upole=9.051306,-4.0305806,-5.0207255,2.2859639,2.1784364,0.7007541\PG=
 C01 [X(Na4)]\\@


      HUMANKIND PERIODICALLY GOES THROUGH A SPEEDUP OF ITS AFFAIRS, 
      THEREBY EXPERIENCING THE RACE BETWEEN THE RENEWABLE VITALITY
      OF THE LIVING, AND THE BECKONING VITIATION OF DECADENCE.
      IN THIS PERIODIC RACE, ANY PAUSE BECOMES A LUXURY.
      ONLY THEN CAN ONE REFLECT THAT ALL IS PERMITTED;
      ALL IS POSSIBLE.

                              -- THE APOCRYPHA OF MUAD'DIB
                                 CHILDREN OF DUNE, BY FRANK HERBERT
 Job cpu time:       0 days  0 hours  0 minutes 34.5 seconds.
 Elapsed time:       0 days  0 hours  0 minutes  2.3 seconds.
 File lengths (MBytes):  RWF=     10 Int=      0 D2E=      0 Chk=      2 Scr=      1
 Normal termination of Gaussian 16 at Mon Aug 28 10:18:00 2023.
