 Entering Gaussian System, Link 0=g16
 Initial command:
 /home/sekinelabo/g16/l1.exe "/home/sekinelabo/g16temp/Gau-90089.inp" -scrdir="/home/sekinelabo/g16temp/"
 Entering Link 1 = /home/sekinelabo/g16/l1.exe PID=     90091.
  
 Copyright (c) 1988-2017, Gaussian, Inc.  All Rights Reserved.
  
 This is part of the Gaussian(R) 16 program.  It is based on
 the Gaussian(R) 09 system (copyright 2009, Gaussian, Inc.),
 the Gaussian(R) 03 system (copyright 2003, Gaussian, Inc.),
 the Gaussian(R) 98 system (copyright 1998, Gaussian, Inc.),
 the Gaussian(R) 94 system (copyright 1995, Gaussian, Inc.),
 the Gaussian 92(TM) system (copyright 1992, Gaussian, Inc.),
 the Gaussian 90(TM) system (copyright 1990, Gaussian, Inc.),
 the Gaussian 88(TM) system (copyright 1988, Gaussian, Inc.),
 the Gaussian 86(TM) system (copyright 1986, Carnegie Mellon
 University), and the Gaussian 82(TM) system (copyright 1983,
 Carnegie Mellon University). Gaussian is a federally registered
 trademark of Gaussian, Inc.
  
 This software contains proprietary and confidential information,
 including trade secrets, belonging to Gaussian, Inc.
  
 This software is provided under written license and may be
 used, copied, transmitted, or stored only in accord with that
 written license.
  
 The following legend is applicable only to US Government
 contracts under FAR:
  
                    RESTRICTED RIGHTS LEGEND
  
 Use, reproduction and disclosure by the US Government is
 subject to restrictions as set forth in subparagraphs (a)
 and (c) of the Commercial Computer Software - Restricted
 Rights clause in FAR 52.227-19.
  
 Gaussian, Inc.
 340 Quinnipiac St., Bldg. 40, Wallingford CT 06492
  
  
 ---------------------------------------------------------------
 Warning -- This program may not be used in any manner that
 competes with the business of Gaussian, Inc. or will provide
 assistance to any competitor of Gaussian, Inc.  The licensee
 of this program is prohibited from giving any competitor of
 Gaussian, Inc. access to this program.  By using this program,
 the user acknowledges that Gaussian, Inc. is engaged in the
 business of creating and licensing software in the field of
 computational chemistry and represents and warrants to the
 licensee that it is not a competitor of Gaussian, Inc. and that
 it will not use this program in any manner prohibited above.
 ---------------------------------------------------------------
  

 Cite this work as:
 Gaussian 16, Revision B.01,
 M. J. Frisch, G. W. Trucks, H. B. Schlegel, G. E. Scuseria, 
 M. A. Robb, J. R. Cheeseman, G. Scalmani, V. Barone, 
 G. A. Petersson, H. Nakatsuji, X. Li, M. Caricato, A. V. Marenich, 
 J. Bloino, B. G. Janesko, R. Gomperts, B. Mennucci, H. P. Hratchian, 
 J. V. Ortiz, A. F. Izmaylov, J. L. Sonnenberg, D. Williams-Young, 
 F. Ding, F. Lipparini, F. Egidi, J. Goings, B. Peng, A. Petrone, 
 T. Henderson, D. Ranasinghe, V. G. Zakrzewski, J. Gao, N. Rega, 
 G. Zheng, W. Liang, M. Hada, M. Ehara, K. Toyota, R. Fukuda, 
 J. Hasegawa, M. Ishida, T. Nakajima, Y. Honda, O. Kitao, H. Nakai, 
 T. Vreven, K. Throssell, J. A. Montgomery, Jr., J. E. Peralta, 
 F. Ogliaro, M. J. Bearpark, J. J. Heyd, E. N. Brothers, K. N. Kudin, 
 V. N. Staroverov, T. A. Keith, R. Kobayashi, J. Normand, 
 K. Raghavachari, A. P. Rendell, J. C. Burant, S. S. Iyengar, 
 J. Tomasi, M. Cossi, J. M. Millam, M. Klene, C. Adamo, R. Cammi, 
 J. W. Ochterski, R. L. Martin, K. Morokuma, O. Farkas, 
 J. B. Foresman, and D. J. Fox, Gaussian, Inc., Wallingford CT, 2016.
 
 ******************************************
 Gaussian 16:  ES64L-G16RevB.01 20-Dec-2017
                29-Sep-2023 
 ******************************************
 %NProcShared=16
 Will use up to   16 processors via shared memory.
 %mem=12GB
 %Chk=checkpoint.chk
 -------------------------
 #p B3LYP/6-311+g(d) force
 -------------------------
 1/10=7,30=1,38=1/1,3;
 2/12=2,17=6,18=5,40=1/2;
 3/5=4,6=6,7=11,11=2,25=1,30=1,71=1,74=-5/1,2,3;
 4//1;
 5/5=2,38=5/2;
 6/7=2,8=2,9=2,10=2,28=1/1;
 7/29=1/1,2,3,16;
 1/10=7,30=1/3;
 99//99;
 Leave Link    1 at Fri Sep 29 22:52:04 2023, MaxMem=  1610612736 cpu:               0.2 elap:               0.0
 (Enter /home/sekinelabo/g16/l101.exe)


 Symbolic Z-matrix:
 Charge =  0 Multiplicity = 1
 Na                    0.        0.        0. 
 Na                    0.        0.        4.46287 
 Na                    0.        0.        6.80648 
 Na                    0.        0.        9.64176 
 
 ITRead=  0  0  0  0
 MicOpt= -1 -1 -1 -1
 NAtoms=      4 NQM=        4 NQMF=       0 NMMI=      0 NMMIF=      0
                NMic=       0 NMicF=      0.
                    Isotopes and Nuclear Properties:
 (Nuclear quadrupole moments (NQMom) in fm**2, nuclear magnetic moments (NMagM)
  in nuclear magnetons)

  Atom         1           2           3           4
 IAtWgt=          23          23          23          23
 AtmWgt=  22.9897697  22.9897697  22.9897697  22.9897697
 NucSpn=           3           3           3           3
 AtZEff=  -0.0000000  -0.0000000  -0.0000000  -0.0000000
 NQMom=   10.4000000  10.4000000  10.4000000  10.4000000
 NMagM=    2.2175200   2.2175200   2.2175200   2.2175200
 AtZNuc=  11.0000000  11.0000000  11.0000000  11.0000000
 Leave Link  101 at Fri Sep 29 22:52:04 2023, MaxMem=  1610612736 cpu:               1.7 elap:               0.1
 (Enter /home/sekinelabo/g16/l103.exe)

 GradGradGradGradGradGradGradGradGradGradGradGradGradGradGradGradGradGrad
 Berny optimization.
 Initialization pass.
 Trust Radius=3.00D-01 FncErr=1.00D-07 GrdErr=1.00D-07 EigMax=2.50D+02 EigMin=1.00D-04
 Number of steps in this run=      2 maximum allowed number of steps=      2.
 GradGradGradGradGradGradGradGradGradGradGradGradGradGradGradGradGradGrad

 Leave Link  103 at Fri Sep 29 22:52:04 2023, MaxMem=  1610612736 cpu:               0.1 elap:               0.0
 (Enter /home/sekinelabo/g16/l202.exe)
                          Input orientation:                          
 ---------------------------------------------------------------------
 Center     Atomic      Atomic             Coordinates (Angstroms)
 Number     Number       Type             X           Y           Z
 ---------------------------------------------------------------------
      1         11           0        0.000000    0.000000    0.000000
      2         11           0        0.000000    0.000000    4.462874
      3         11           0        0.000000    0.000000    6.806482
      4         11           0        0.000000    0.000000    9.641756
 ---------------------------------------------------------------------
                    Distance matrix (angstroms):
                    1          2          3          4
     1  Na   0.000000
     2  Na   4.462874   0.000000
     3  Na   6.806482   2.343607   0.000000
     4  Na   9.641756   5.178882   2.835275   0.000000
 Stoichiometry    Na4
 Framework group  C*V[C*(NaNaNaNa)]
 Deg. of freedom     3
 Full point group                 C*V     NOp   4
 Largest Abelian subgroup         C2V     NOp   4
 Largest concise Abelian subgroup C1      NOp   1
                         Standard orientation:                         
 ---------------------------------------------------------------------
 Center     Atomic      Atomic             Coordinates (Angstroms)
 Number     Number       Type             X           Y           Z
 ---------------------------------------------------------------------
      1         11           0        0.000000    0.000000    5.227778
      2         11           0        0.000000    0.000000    0.764904
      3         11           0        0.000000    0.000000   -1.578704
      4         11           0        0.000000    0.000000   -4.413978
 ---------------------------------------------------------------------
 Rotational constants (GHZ):           0.0000000           0.4406227           0.4406227
 Leave Link  202 at Fri Sep 29 22:52:04 2023, MaxMem=  1610612736 cpu:               0.0 elap:               0.0
 (Enter /home/sekinelabo/g16/l301.exe)
 Standard basis: 6-311+G(d) (5D, 7F)
 Ernie: Thresh=  0.10000D-02 Tol=  0.10000D-05 Strict=F.
 There are    64 symmetry adapted cartesian basis functions of A1  symmetry.
 There are     4 symmetry adapted cartesian basis functions of A2  symmetry.
 There are    28 symmetry adapted cartesian basis functions of B1  symmetry.
 There are    28 symmetry adapted cartesian basis functions of B2  symmetry.
 There are    60 symmetry adapted basis functions of A1  symmetry.
 There are     4 symmetry adapted basis functions of A2  symmetry.
 There are    28 symmetry adapted basis functions of B1  symmetry.
 There are    28 symmetry adapted basis functions of B2  symmetry.
   120 basis functions,   200 primitive gaussians,   124 cartesian basis functions
    22 alpha electrons       22 beta electrons
       nuclear repulsion energy        92.6641627737 Hartrees.
 IExCor=  402 DFT=T Ex+Corr=B3LYP ExCW=0 ScaHFX=  0.200000
 ScaDFX=  0.800000  0.720000  1.000000  0.810000 ScalE2=  1.000000  1.000000
 IRadAn=      5 IRanWt=     -1 IRanGd=            0 ICorTp=0 IEmpDi=  4
 NAtoms=    4 NActive=    4 NUniq=    4 SFac= 1.00D+00 NAtFMM=   60 NAOKFM=F Big=F
 Integral buffers will be    131072 words long.
 Raffenetti 2 integral format.
 Two-electron integral symmetry is turned on.
 Leave Link  301 at Fri Sep 29 22:52:04 2023, MaxMem=  1610612736 cpu:               0.4 elap:               0.0
 (Enter /home/sekinelabo/g16/l302.exe)
 NPDir=0 NMtPBC=     1 NCelOv=     1 NCel=       1 NClECP=     1 NCelD=      1
         NCelK=      1 NCelE2=     1 NClLst=     1 CellRange=     0.0.
 One-electron integrals computed using PRISM.
 One-electron integral symmetry used in STVInt
 NBasis=   120 RedAO= T EigKep=  7.69D-05  NBF=    60     4    28    28
 NBsUse=   118 1.00D-06 EigRej=  9.27D-07 NBFU=    58     4    28    28
 Precomputing XC quadrature grid using
 IXCGrd= 4 IRadAn=           5 IRanWt=          -1 IRanGd=           0 AccXCQ= 0.00D+00.
 Generated NRdTot=       0 NPtTot=           0 NUsed=           0 NTot=          32
 NSgBfM=   115   115   115   115   115 MxSgAt=     4 MxSgA2=     4.
 Leave Link  302 at Fri Sep 29 22:52:04 2023, MaxMem=  1610612736 cpu:               1.3 elap:               0.1
 (Enter /home/sekinelabo/g16/l303.exe)
 DipDrv:  MaxL=1.
 Leave Link  303 at Fri Sep 29 22:52:04 2023, MaxMem=  1610612736 cpu:               0.3 elap:               0.0
 (Enter /home/sekinelabo/g16/l401.exe)
 ExpMin= 7.60D-03 ExpMax= 3.62D+04 ExpMxC= 1.21D+03 IAcc=3 IRadAn=         5 AccDes= 0.00D+00
 Harris functional with IExCor=  402 and IRadAn=       5 diagonalized for initial guess.
 HarFok:  IExCor=  402 AccDes= 0.00D+00 IRadAn=         5 IDoV= 1 UseB2=F ITyADJ=14
 ICtDFT=  3500011 ScaDFX=  1.000000  1.000000  1.000000  1.000000
 FoFCou: FMM=F IPFlag=           0 FMFlag=      100000 FMFlg1=           0
         NFxFlg=           0 DoJE=T BraDBF=F KetDBF=T FulRan=T
         wScrn=  0.000000 ICntrl=       500 IOpCl=  0 I1Cent=   200000004 NGrid=           0
         NMat0=    1 NMatS0=      1 NMatT0=    0 NMatD0=    1 NMtDS0=    0 NMtDT0=    0
 Petite list used in FoFCou.
 Harris En= -649.038979230967    
 JPrj=0 DoOrth=F DoCkMO=F.
 Initial guess orbital symmetries:
       Occupied  (SG) (SG) (SG) (SG) (SG) (SG) (SG) (SG) (SG) (PI)
                 (PI) (PI) (PI) (SG) (SG) (PI) (PI) (SG) (PI) (PI)
                 (SG) (SG)
       Virtual   (SG) (PI) (PI) (SG) (PI) (PI) (SG) (PI) (PI) (SG)
                 (SG) (PI) (PI) (SG) (SG) (PI) (PI) (PI) (PI) (SG)
                 (PI) (PI) (SG) (PI) (PI) (SG) (SG) (SG) (PI) (PI)
                 (SG) (SG) (PI) (PI) (PI) (PI) (SG) (PI) (PI) (SG)
                 (SG) (SG) (SG) (SG) (PI) (PI) (DLTA) (DLTA) (DLTA)
                 (DLTA) (DLTA) (DLTA) (PI) (PI) (SG) (SG) (PI)
                 (PI) (DLTA) (DLTA) (SG) (PI) (PI) (PI) (PI) (PI)
                 (PI) (PI) (PI) (SG) (SG) (SG) (PI) (PI) (SG) (SG)
                 (SG) (SG) (SG) (SG) (PI) (PI) (PI) (PI) (PI) (PI)
                 (SG) (PI) (PI) (SG) (SG) (SG) (SG) (SG) (SG) (SG)
 The electronic state of the initial guess is 1-SG.
 Leave Link  401 at Fri Sep 29 22:52:05 2023, MaxMem=  1610612736 cpu:               1.6 elap:               0.1
 (Enter /home/sekinelabo/g16/l502.exe)
 Keep R1 ints in memory in symmetry-blocked form, NReq=41601370.
 FoFCou: FMM=F IPFlag=           0 FMFlag=           0 FMFlg1=           0
         NFxFlg=           0 DoJE=F BraDBF=F KetDBF=F FulRan=T
         wScrn=  0.000000 ICntrl=       600 IOpCl=  0 I1Cent=           0 NGrid=           0
         NMat0=    1 NMatS0=   7260 NMatT0=    0 NMatD0=    1 NMtDS0=    0 NMtDT0=    0
 Petite list used in FoFCou.
 Closed shell SCF:
 Using DIIS extrapolation, IDIIS=  1040.
 NGot=  1610612736 LenX=  1603303456 LenY=  1603287639
 Requested convergence on RMS density matrix=1.00D-08 within 128 cycles.
 Requested convergence on MAX density matrix=1.00D-06.
 Requested convergence on             energy=1.00D-06.
 No special actions if energy rises.

 Cycle   1  Pass 1  IDiag  1:
 E= -649.149712147673    
 DIIS: error= 1.65D-02 at cycle   1 NSaved=   1.
 NSaved= 1 IEnMin= 1 EnMin= -649.149712147673     IErMin= 1 ErrMin= 1.65D-02
 ErrMax= 1.65D-02  0.00D+00 EMaxC= 1.00D-01 BMatC= 2.73D-02 BMatP= 2.73D-02
 IDIUse=3 WtCom= 8.35D-01 WtEn= 1.65D-01
 Coeff-Com:  0.100D+01
 Coeff-En:   0.100D+01
 Coeff:      0.100D+01
 Gap=     0.030 Goal=   None    Shift=    0.000
 GapD=    0.030 DampG=0.250 DampE=0.500 DampFc=0.2500 IDamp=-1.
 Damping current iteration by 2.50D-01
 RMSDP=6.22D-03 MaxDP=2.74D-01              OVMax= 3.67D-01

 Cycle   2  Pass 1  IDiag  1:
 E= -649.154882022534     Delta-E=       -0.005169874861 Rises=F Damp=T
 DIIS: error= 1.14D-02 at cycle   2 NSaved=   2.
 NSaved= 2 IEnMin= 2 EnMin= -649.154882022534     IErMin= 2 ErrMin= 1.14D-02
 ErrMax= 1.14D-02  0.00D+00 EMaxC= 1.00D-01 BMatC= 1.04D-02 BMatP= 2.73D-02
 IDIUse=3 WtCom= 8.86D-01 WtEn= 1.14D-01
 Coeff-Com: -0.118D+01 0.218D+01
 Coeff-En:   0.000D+00 0.100D+01
 Coeff:     -0.105D+01 0.205D+01
 Gap=     0.024 Goal=   None    Shift=    0.000
 RMSDP=4.63D-03 MaxDP=2.17D-01 DE=-5.17D-03 OVMax= 6.56D-01

 Cycle   3  Pass 1  IDiag  1:
 E= -649.114140258965     Delta-E=        0.040741763569 Rises=F Damp=F
 DIIS: error= 1.51D-02 at cycle   3 NSaved=   3.
 NSaved= 3 IEnMin= 2 EnMin= -649.154882022534     IErMin= 2 ErrMin= 1.14D-02
 ErrMax= 1.51D-02  0.00D+00 EMaxC= 1.00D-01 BMatC= 5.68D-03 BMatP= 1.04D-02
 IDIUse=3 WtCom= 8.49D-01 WtEn= 1.51D-01
 Coeff-Com: -0.745D+00 0.134D+01 0.405D+00
 Coeff-En:   0.000D+00 0.983D+00 0.174D-01
 Coeff:     -0.633D+00 0.129D+01 0.347D+00
 Gap=     0.019 Goal=   None    Shift=    0.000
 RMSDP=6.41D-03 MaxDP=3.17D-01 DE= 4.07D-02 OVMax= 5.72D-01

 Cycle   4  Pass 1  IDiag  1:
 E= -649.146096980732     Delta-E=       -0.031956721767 Rises=F Damp=F
 DIIS: error= 9.34D-03 at cycle   4 NSaved=   4.
 NSaved= 4 IEnMin= 2 EnMin= -649.154882022534     IErMin= 4 ErrMin= 9.34D-03
 ErrMax= 9.34D-03  0.00D+00 EMaxC= 1.00D-01 BMatC= 2.30D-03 BMatP= 5.68D-03
 IDIUse=3 WtCom= 9.07D-01 WtEn= 9.34D-02
 Coeff-Com:  0.768D-01-0.570D-01 0.362D+00 0.618D+00
 Coeff-En:   0.000D+00 0.000D+00 0.348D+00 0.652D+00
 Coeff:      0.696D-01-0.517D-01 0.361D+00 0.621D+00
 Gap=     0.031 Goal=   None    Shift=    0.000
 RMSDP=2.76D-03 MaxDP=1.52D-01 DE=-3.20D-02 OVMax= 2.47D-01

 Cycle   5  Pass 1  IDiag  1:
 E= -649.165529665527     Delta-E=       -0.019432684795 Rises=F Damp=F
 DIIS: error= 1.03D-03 at cycle   5 NSaved=   5.
 NSaved= 5 IEnMin= 5 EnMin= -649.165529665527     IErMin= 5 ErrMin= 1.03D-03
 ErrMax= 1.03D-03  0.00D+00 EMaxC= 1.00D-01 BMatC= 6.53D-05 BMatP= 2.30D-03
 IDIUse=3 WtCom= 9.90D-01 WtEn= 1.03D-02
 Coeff-Com:  0.121D-01-0.172D-01 0.744D-01 0.154D+00 0.777D+00
 Coeff-En:   0.000D+00 0.000D+00 0.000D+00 0.000D+00 0.100D+01
 Coeff:      0.120D-01-0.170D-01 0.736D-01 0.152D+00 0.779D+00
 Gap=     0.034 Goal=   None    Shift=    0.000
 RMSDP=7.15D-04 MaxDP=3.34D-02 DE=-1.94D-02 OVMax= 3.90D-02

 Cycle   6  Pass 1  IDiag  1:
 E= -649.165577194569     Delta-E=       -0.000047529042 Rises=F Damp=F
 DIIS: error= 1.09D-03 at cycle   6 NSaved=   6.
 NSaved= 6 IEnMin= 6 EnMin= -649.165577194569     IErMin= 5 ErrMin= 1.03D-03
 ErrMax= 1.09D-03  0.00D+00 EMaxC= 1.00D-01 BMatC= 3.59D-05 BMatP= 6.53D-05
 IDIUse=3 WtCom= 9.90D-01 WtEn= 1.03D-02
 Coeff-Com: -0.146D-01 0.193D-01 0.508D-02-0.283D-01 0.385D+00 0.633D+00
 Coeff-En:   0.000D+00 0.000D+00 0.000D+00 0.000D+00 0.453D+00 0.547D+00
 Coeff:     -0.145D-01 0.192D-01 0.502D-02-0.280D-01 0.386D+00 0.633D+00
 Gap=     0.035 Goal=   None    Shift=    0.000
 RMSDP=2.77D-04 MaxDP=1.25D-02 DE=-4.75D-05 OVMax= 1.48D-02

 Cycle   7  Pass 1  IDiag  1:
 E= -649.165746802253     Delta-E=       -0.000169607684 Rises=F Damp=F
 DIIS: error= 2.69D-04 at cycle   7 NSaved=   7.
 NSaved= 7 IEnMin= 7 EnMin= -649.165746802253     IErMin= 7 ErrMin= 2.69D-04
 ErrMax= 2.69D-04  0.00D+00 EMaxC= 1.00D-01 BMatC= 2.80D-06 BMatP= 3.59D-05
 IDIUse=3 WtCom= 9.97D-01 WtEn= 2.69D-03
 Coeff-Com: -0.266D-02 0.329D-02 0.495D-02-0.274D-01 0.649D-01 0.234D+00
 Coeff-Com:  0.723D+00
 Coeff-En:   0.000D+00 0.000D+00 0.000D+00 0.000D+00 0.000D+00 0.000D+00
 Coeff-En:   0.100D+01
 Coeff:     -0.265D-02 0.328D-02 0.493D-02-0.274D-01 0.647D-01 0.234D+00
 Coeff:      0.723D+00
 Gap=     0.035 Goal=   None    Shift=    0.000
 RMSDP=9.71D-05 MaxDP=4.00D-03 DE=-1.70D-04 OVMax= 5.97D-03

 Cycle   8  Pass 1  IDiag  1:
 E= -649.165763789301     Delta-E=       -0.000016987047 Rises=F Damp=F
 DIIS: error= 6.36D-05 at cycle   8 NSaved=   8.
 NSaved= 8 IEnMin= 8 EnMin= -649.165763789301     IErMin= 8 ErrMin= 6.36D-05
 ErrMax= 6.36D-05  0.00D+00 EMaxC= 1.00D-01 BMatC= 1.11D-07 BMatP= 2.80D-06
 IDIUse=1 WtCom= 1.00D+00 WtEn= 0.00D+00
 Coeff-Com: -0.269D-03 0.359D-03 0.217D-02-0.897D-02 0.626D-02 0.372D-01
 Coeff-Com:  0.172D+00 0.791D+00
 Coeff:     -0.269D-03 0.359D-03 0.217D-02-0.897D-02 0.626D-02 0.372D-01
 Coeff:      0.172D+00 0.791D+00
 Gap=     0.035 Goal=   None    Shift=    0.000
 RMSDP=1.72D-05 MaxDP=5.09D-04 DE=-1.70D-05 OVMax= 8.40D-04

 Cycle   9  Pass 1  IDiag  1:
 E= -649.165763920114     Delta-E=       -0.000000130813 Rises=F Damp=F
 DIIS: error= 4.78D-05 at cycle   9 NSaved=   9.
 NSaved= 9 IEnMin= 9 EnMin= -649.165763920114     IErMin= 9 ErrMin= 4.78D-05
 ErrMax= 4.78D-05  0.00D+00 EMaxC= 1.00D-01 BMatC= 6.91D-08 BMatP= 1.11D-07
 IDIUse=1 WtCom= 1.00D+00 WtEn= 0.00D+00
 Coeff-Com:  0.361D-03-0.477D-03 0.138D-02-0.332D-02-0.625D-02-0.484D-02
 Coeff-Com: -0.285D-02 0.351D+00 0.665D+00
 Coeff:      0.361D-03-0.477D-03 0.138D-02-0.332D-02-0.625D-02-0.484D-02
 Coeff:     -0.285D-02 0.351D+00 0.665D+00
 Gap=     0.035 Goal=   None    Shift=    0.000
 RMSDP=9.68D-06 MaxDP=5.13D-04 DE=-1.31D-07 OVMax= 7.75D-04

 Cycle  10  Pass 1  IDiag  1:
 E= -649.165764396490     Delta-E=       -0.000000476376 Rises=F Damp=F
 DIIS: error= 2.10D-05 at cycle  10 NSaved=  10.
 NSaved=10 IEnMin=10 EnMin= -649.165764396490     IErMin=10 ErrMin= 2.10D-05
 ErrMax= 2.10D-05  0.00D+00 EMaxC= 1.00D-01 BMatC= 9.05D-09 BMatP= 6.91D-08
 IDIUse=1 WtCom= 1.00D+00 WtEn= 0.00D+00
 Coeff-Com:  0.168D-03-0.229D-03 0.387D-03-0.116D-03-0.218D-02-0.918D-02
 Coeff-Com: -0.337D-01-0.934D-02 0.595D-01 0.995D+00
 Coeff:      0.168D-03-0.229D-03 0.387D-03-0.116D-03-0.218D-02-0.918D-02
 Coeff:     -0.337D-01-0.934D-02 0.595D-01 0.995D+00
 Gap=     0.035 Goal=   None    Shift=    0.000
 RMSDP=4.79D-06 MaxDP=2.43D-04 DE=-4.76D-07 OVMax= 4.19D-04

 Cycle  11  Pass 1  IDiag  1:
 E= -649.165764470777     Delta-E=       -0.000000074287 Rises=F Damp=F
 DIIS: error= 2.14D-06 at cycle  11 NSaved=  11.
 NSaved=11 IEnMin=11 EnMin= -649.165764470777     IErMin=11 ErrMin= 2.14D-06
 ErrMax= 2.14D-06  0.00D+00 EMaxC= 1.00D-01 BMatC= 1.07D-10 BMatP= 9.05D-09
 IDIUse=1 WtCom= 1.00D+00 WtEn= 0.00D+00
 Coeff-Com: -0.318D-04 0.403D-04 0.698D-04-0.846D-04 0.924D-03 0.625D-03
 Coeff-Com:  0.636D-03-0.105D-01-0.341D-01 0.105D+00 0.937D+00
 Coeff:     -0.318D-04 0.403D-04 0.698D-04-0.846D-04 0.924D-03 0.625D-03
 Coeff:      0.636D-03-0.105D-01-0.341D-01 0.105D+00 0.937D+00
 Gap=     0.035 Goal=   None    Shift=    0.000
 RMSDP=6.06D-07 MaxDP=1.99D-05 DE=-7.43D-08 OVMax= 2.47D-05

 Cycle  12  Pass 1  IDiag  1:
 E= -649.165764471300     Delta-E=       -0.000000000523 Rises=F Damp=F
 DIIS: error= 1.01D-06 at cycle  12 NSaved=  12.
 NSaved=12 IEnMin=12 EnMin= -649.165764471300     IErMin=12 ErrMin= 1.01D-06
 ErrMax= 1.01D-06  0.00D+00 EMaxC= 1.00D-01 BMatC= 2.51D-11 BMatP= 1.07D-10
 IDIUse=1 WtCom= 1.00D+00 WtEn= 0.00D+00
 Coeff-Com: -0.375D-05 0.518D-05 0.171D-04-0.276D-04 0.223D-03 0.254D-03
 Coeff-Com:  0.434D-03 0.203D-02-0.104D-01-0.249D-01 0.183D+00 0.850D+00
 Coeff:     -0.375D-05 0.518D-05 0.171D-04-0.276D-04 0.223D-03 0.254D-03
 Coeff:      0.434D-03 0.203D-02-0.104D-01-0.249D-01 0.183D+00 0.850D+00
 Gap=     0.035 Goal=   None    Shift=    0.000
 RMSDP=2.90D-07 MaxDP=1.06D-05 DE=-5.23D-10 OVMax= 1.79D-05

 Cycle  13  Pass 1  IDiag  1:
 E= -649.165764471503     Delta-E=       -0.000000000203 Rises=F Damp=F
 DIIS: error= 2.96D-07 at cycle  13 NSaved=  13.
 NSaved=13 IEnMin=13 EnMin= -649.165764471503     IErMin=13 ErrMin= 2.96D-07
 ErrMax= 2.96D-07  0.00D+00 EMaxC= 1.00D-01 BMatC= 1.87D-12 BMatP= 2.51D-11
 IDIUse=1 WtCom= 1.00D+00 WtEn= 0.00D+00
 Coeff-Com:  0.350D-05-0.449D-05 0.954D-06-0.377D-05 0.296D-05 0.557D-05
 Coeff-Com:  0.310D-04 0.155D-02-0.255D-02-0.148D-01-0.459D-01 0.251D+00
 Coeff-Com:  0.810D+00
 Coeff:      0.350D-05-0.449D-05 0.954D-06-0.377D-05 0.296D-05 0.557D-05
 Coeff:      0.310D-04 0.155D-02-0.255D-02-0.148D-01-0.459D-01 0.251D+00
 Coeff:      0.810D+00
 Gap=     0.035 Goal=   None    Shift=    0.000
 RMSDP=1.10D-07 MaxDP=3.87D-06 DE=-2.03D-10 OVMax= 6.41D-06

 Cycle  14  Pass 1  IDiag  1:
 E= -649.165764471514     Delta-E=       -0.000000000011 Rises=F Damp=F
 DIIS: error= 1.07D-08 at cycle  14 NSaved=  14.
 NSaved=14 IEnMin=14 EnMin= -649.165764471514     IErMin=14 ErrMin= 1.07D-08
 ErrMax= 1.07D-08  0.00D+00 EMaxC= 1.00D-01 BMatC= 5.66D-15 BMatP= 1.87D-12
 IDIUse=1 WtCom= 1.00D+00 WtEn= 0.00D+00
 Coeff-Com: -0.598D-06 0.769D-06 0.276D-06-0.695D-06-0.326D-06-0.317D-05
 Coeff-Com: -0.322D-04-0.902D-04 0.242D-03 0.220D-02-0.171D-02-0.348D-01
 Coeff-Com: -0.265D-01 0.106D+01
 Coeff:     -0.598D-06 0.769D-06 0.276D-06-0.695D-06-0.326D-06-0.317D-05
 Coeff:     -0.322D-04-0.902D-04 0.242D-03 0.220D-02-0.171D-02-0.348D-01
 Coeff:     -0.265D-01 0.106D+01
 Gap=     0.035 Goal=   None    Shift=    0.000
 RMSDP=1.20D-08 MaxDP=2.64D-07 DE=-1.09D-11 OVMax= 1.26D-07

 Cycle  15  Pass 1  IDiag  1:
 E= -649.165764471518     Delta-E=       -0.000000000004 Rises=F Damp=F
 DIIS: error= 8.71D-09 at cycle  15 NSaved=  15.
 NSaved=15 IEnMin=15 EnMin= -649.165764471518     IErMin=15 ErrMin= 8.71D-09
 ErrMax= 8.71D-09  0.00D+00 EMaxC= 1.00D-01 BMatC= 1.33D-15 BMatP= 5.66D-15
 IDIUse=1 WtCom= 1.00D+00 WtEn= 0.00D+00
 Coeff-Com: -0.219D-06 0.284D-06 0.679D-08-0.157D-06-0.453D-06-0.139D-05
 Coeff-Com: -0.113D-04-0.435D-04 0.968D-04 0.677D-03-0.106D-02-0.151D-01
 Coeff-Com: -0.137D-01 0.385D+00 0.644D+00
 Coeff:     -0.219D-06 0.284D-06 0.679D-08-0.157D-06-0.453D-06-0.139D-05
 Coeff:     -0.113D-04-0.435D-04 0.968D-04 0.677D-03-0.106D-02-0.151D-01
 Coeff:     -0.137D-01 0.385D+00 0.644D+00
 Gap=     0.035 Goal=   None    Shift=    0.000
 RMSDP=2.03D-09 MaxDP=1.01D-07 DE=-4.09D-12 OVMax= 1.80D-07

 SCF Done:  E(RB3LYP) =  -649.165764472     A.U. after   15 cycles
            NFock= 15  Conv=0.20D-08     -V/T= 2.0027
 KE= 6.474333765997D+02 PE=-1.744150132810D+03 EE= 3.548868289652D+02
 Leave Link  502 at Fri Sep 29 22:52:05 2023, MaxMem=  1610612736 cpu:              12.7 elap:               0.8
 (Enter /home/sekinelabo/g16/l601.exe)
 Copying SCF densities to generalized density rwf, IOpCl= 0 IROHF=0.

 **********************************************************************

            Population analysis using the SCF Density.

 **********************************************************************

 Orbital symmetries:
       Occupied  (SG) (SG) (SG) (SG) (SG) (SG) (SG) (SG) (SG) (PI)
                 (PI) (PI) (PI) (SG) (SG) (PI) (PI) (PI) (PI) (SG)
                 (SG) (SG)
       Virtual   (SG) (PI) (PI) (SG) (PI) (PI) (SG) (PI) (PI) (SG)
                 (SG) (PI) (PI) (SG) (SG) (PI) (PI) (PI) (PI) (SG)
                 (PI) (PI) (SG) (SG) (PI) (PI) (SG) (SG) (PI) (PI)
                 (SG) (PI) (PI) (SG) (PI) (PI) (SG) (PI) (PI) (SG)
                 (SG) (SG) (SG) (SG) (PI) (PI) (DLTA) (DLTA) (DLTA)
                 (DLTA) (DLTA) (DLTA) (PI) (PI) (SG) (SG) (PI)
                 (PI) (DLTA) (DLTA) (PI) (PI) (SG) (PI) (PI) (PI)
                 (PI) (SG) (PI) (PI) (SG) (SG) (PI) (PI) (SG) (SG)
                 (SG) (SG) (SG) (SG) (PI) (PI) (PI) (PI) (PI) (PI)
                 (SG) (PI) (PI) (SG) (SG) (SG) (SG) (SG) (SG) (SG)
 The electronic state is 1-SG.
 Alpha  occ. eigenvalues --  -38.46273 -38.45859 -38.45574 -38.45481  -2.22206
 Alpha  occ. eigenvalues --   -2.21563  -2.21543  -2.21293  -1.16720  -1.15747
 Alpha  occ. eigenvalues --   -1.15747  -1.15221  -1.15221  -1.15172  -1.15108
 Alpha  occ. eigenvalues --   -1.15085  -1.15085  -1.14922  -1.14922  -1.14742
 Alpha  occ. eigenvalues --   -0.15544  -0.11673
 Alpha virt. eigenvalues --   -0.08192  -0.03661  -0.03661  -0.03544  -0.01692
 Alpha virt. eigenvalues --   -0.01692  -0.00881  -0.00173  -0.00173   0.00244
 Alpha virt. eigenvalues --    0.00347   0.01204   0.01204   0.01267   0.01462
 Alpha virt. eigenvalues --    0.01473   0.01473   0.02323   0.02323   0.02806
 Alpha virt. eigenvalues --    0.02962   0.02962   0.03532   0.04239   0.04421
 Alpha virt. eigenvalues --    0.04421   0.05504   0.05928   0.07211   0.07211
 Alpha virt. eigenvalues --    0.07251   0.08265   0.08265   0.08379   0.08498
 Alpha virt. eigenvalues --    0.08498   0.09389   0.11593   0.11593   0.12875
 Alpha virt. eigenvalues --    0.14838   0.15076   0.16730   0.23529   0.27810
 Alpha virt. eigenvalues --    0.27810   0.28704   0.28704   0.34160   0.34160
 Alpha virt. eigenvalues --    0.34636   0.34636   0.35279   0.35279   0.36659
 Alpha virt. eigenvalues --    0.37115   0.37325   0.37325   0.41434   0.41434
 Alpha virt. eigenvalues --    0.42384   0.42384   0.42564   0.42921   0.42921
 Alpha virt. eigenvalues --    0.45159   0.45159   0.46460   0.47300   0.47300
 Alpha virt. eigenvalues --    0.48161   0.51596   0.64312   0.64312   0.78253
 Alpha virt. eigenvalues --    0.95648   2.02271   2.05442   2.12141   2.23464
 Alpha virt. eigenvalues --    4.41357   4.41357   4.43079   4.43079   4.44920
 Alpha virt. eigenvalues --    4.44920   4.45369   4.48623   4.48623   4.50680
 Alpha virt. eigenvalues --    4.68311   4.81199  96.21794  96.26345  96.34907
 Alpha virt. eigenvalues --   96.47913
          Condensed to atoms (all electrons):
               1          2          3          4
     1  Na  10.953552   0.024053   0.115300  -0.039328
     2  Na   0.024053  10.678176   0.084813   0.233153
     3  Na   0.115300   0.084813  10.427050   0.116110
     4  Na  -0.039328   0.233153   0.116110  10.873018
 Mulliken charges:
               1
     1  Na  -0.053578
     2  Na  -0.020195
     3  Na   0.256726
     4  Na  -0.182953
 Sum of Mulliken charges =  -0.00000
 Mulliken charges with hydrogens summed into heavy atoms:
               1
     1  Na  -0.053578
     2  Na  -0.020195
     3  Na   0.256726
     4  Na  -0.182953
 Electronic spatial extent (au):  <R**2>=           2039.8966
 Charge=              0.0000 electrons
 Dipole moment (field-independent basis, Debye):
    X=              0.0000    Y=              0.0000    Z=             -0.7487  Tot=              0.7487
 Quadrupole moment (field-independent basis, Debye-Ang):
   XX=            -44.0552   YY=            -44.0552   ZZ=            -19.6565
   XY=              0.0000   XZ=              0.0000   YZ=              0.0000
 Traceless Quadrupole moment (field-independent basis, Debye-Ang):
   XX=             -8.1329   YY=             -8.1329   ZZ=             16.2658
   XY=              0.0000   XZ=              0.0000   YZ=              0.0000
 Octapole moment (field-independent basis, Debye-Ang**2):
  XXX=              0.0000  YYY=              0.0000  ZZZ=              2.6327  XYY=              0.0000
  XXY=              0.0000  XXZ=             -6.1476  XZZ=              0.0000  YZZ=              0.0000
  YYZ=             -6.1476  XYZ=              0.0000
 Hexadecapole moment (field-independent basis, Debye-Ang**3):
 XXXX=           -179.9028 YYYY=           -179.9028 ZZZZ=          -2154.3705 XXXY=              0.0000
 XXXZ=              0.0000 YYYX=              0.0000 YYYZ=              0.0000 ZZZX=              0.0000
 ZZZY=              0.0000 XXYY=            -59.9676 XXZZ=           -591.2954 YYZZ=           -591.2954
 XXYZ=              0.0000 YYXZ=              0.0000 ZZXY=              0.0000
 N-N= 9.266416277367D+01 E-N=-1.744150133214D+03  KE= 6.474333765997D+02
 Symmetry A1   KE= 5.525212138739D+02
 Symmetry A2   KE=-5.637293348099D-53
 Symmetry B1   KE= 4.745608136289D+01
 Symmetry B2   KE= 4.745608136289D+01
 No NMR shielding tensors so no spin-rotation constants.
 Leave Link  601 at Fri Sep 29 22:52:05 2023, MaxMem=  1610612736 cpu:               1.1 elap:               0.1
 (Enter /home/sekinelabo/g16/l701.exe)
 ... and contract with generalized density number  0.
 Compute integral first derivatives.
 Leave Link  701 at Fri Sep 29 22:52:06 2023, MaxMem=  1610612736 cpu:               1.5 elap:               0.1
 (Enter /home/sekinelabo/g16/l702.exe)
 L702 exits ... SP integral derivatives will be done elsewhere.
 Leave Link  702 at Fri Sep 29 22:52:06 2023, MaxMem=  1610612736 cpu:               0.3 elap:               0.0
 (Enter /home/sekinelabo/g16/l703.exe)
 Integral derivatives from FoFJK, PRISM(SPDF).
 Compute integral first derivatives, UseDBF=F ICtDFT=           0.
 Calling FoFJK, ICntrl=      2127 FMM=F ISym2X=1 I1Cent= 0 IOpClX= 0 NMat=1 NMatS=1 NMatT=0.
 FoFJK:  IHMeth= 1 ICntrl=    2127 DoSepK=F KAlg= 0 I1Cent=           0 FoldK=F
 IRaf=         0 NMat=       1 IRICut=       1 DoRegI=T DoRafI=F ISym2E= 1 IDoP0=0 IntGTp=1.
 FoFCou: FMM=F IPFlag=           0 FMFlag=      100000 FMFlg1=         800
         NFxFlg=           0 DoJE=F BraDBF=F KetDBF=F FulRan=T
         wScrn=  0.000000 ICntrl=      2127 IOpCl=  0 I1Cent=           0 NGrid=           0
         NMat0=    1 NMatS0=      1 NMatT0=    0 NMatD0=    1 NMtDS0=    0 NMtDT0=    0
 Petite list used in FoFCou.
 Leave Link  703 at Fri Sep 29 22:52:06 2023, MaxMem=  1610612736 cpu:               4.3 elap:               0.3
 (Enter /home/sekinelabo/g16/l716.exe)
 Dipole        = 0.00000000D+00 0.00000000D+00-2.94542237D-01
 ***** Axes restored to original set *****
 -------------------------------------------------------------------
 Center     Atomic                   Forces (Hartrees/Bohr)
 Number     Number              X              Y              Z
 -------------------------------------------------------------------
      1       11          -0.000000000   -0.000000000    0.006711505
      2       11          -0.000000000   -0.000000000   -0.036618794
      3       11          -0.000000000   -0.000000000    0.022619606
      4       11          -0.000000000   -0.000000000    0.007287683
 -------------------------------------------------------------------
 Cartesian Forces:  Max     0.036618794 RMS     0.012749958
 Z-matrix is all fixed cartesians, so copy forces.
 Force constants in Cartesian coordinates: 
                1             2             3             4             5 
      1  0.100000D+01
      2  0.000000D+00  0.100000D+01
      3  0.000000D+00  0.000000D+00  0.100000D+01
      4  0.000000D+00  0.000000D+00  0.000000D+00  0.127460D-01
      5  0.000000D+00  0.000000D+00  0.000000D+00  0.000000D+00  0.127460D-01
      6  0.000000D+00  0.000000D+00  0.000000D+00  0.000000D+00  0.000000D+00
      7  0.000000D+00  0.000000D+00  0.000000D+00 -0.232816D-01  0.000000D+00
      8  0.000000D+00  0.000000D+00  0.000000D+00  0.000000D+00 -0.232816D-01
      9  0.000000D+00  0.000000D+00  0.000000D+00  0.000000D+00  0.000000D+00
     10  0.000000D+00  0.000000D+00  0.000000D+00  0.105357D-01  0.000000D+00
     11  0.000000D+00  0.000000D+00  0.000000D+00  0.000000D+00  0.105357D-01
     12  0.000000D+00  0.000000D+00  0.000000D+00  0.000000D+00  0.000000D+00
                6             7             8             9            10 
      6  0.131791D+00
      7  0.000000D+00  0.425260D-01
      8  0.000000D+00  0.000000D+00  0.425260D-01
      9 -0.131791D+00  0.000000D+00  0.000000D+00  0.180488D+00
     10  0.000000D+00 -0.192443D-01  0.000000D+00  0.000000D+00  0.870867D-02
     11  0.000000D+00  0.000000D+00 -0.192443D-01  0.000000D+00  0.000000D+00
     12  0.000000D+00  0.000000D+00  0.000000D+00 -0.486972D-01  0.000000D+00
               11            12 
     11  0.870867D-02
     12  0.000000D+00  0.486972D-01
 Leave Link  716 at Fri Sep 29 22:52:06 2023, MaxMem=  1610612736 cpu:               0.3 elap:               0.0
 (Enter /home/sekinelabo/g16/l103.exe)

 GradGradGradGradGradGradGradGradGradGradGradGradGradGradGradGradGradGrad
 Berny optimization.
 Search for a local minimum.
 Step number   1 out of a maximum of    2
 All quantities printed in internal units (Hartrees-Bohrs-Radians)
 Second derivative matrix not updated -- first step.
 The second derivative matrix:
                          X1        Y1        Z1        X2        Y2
           X1           1.00000
           Y1           0.00000   1.00000
           Z1           0.00000   0.00000   1.00000
           X2           0.00000   0.00000   0.00000   0.01275
           Y2           0.00000   0.00000   0.00000   0.00000   0.01275
           Z2           0.00000   0.00000   0.00000   0.00000   0.00000
           X3           0.00000   0.00000   0.00000  -0.02328   0.00000
           Y3           0.00000   0.00000   0.00000   0.00000  -0.02328
           Z3           0.00000   0.00000   0.00000   0.00000   0.00000
           X4           0.00000   0.00000   0.00000   0.01054   0.00000
           Y4           0.00000   0.00000   0.00000   0.00000   0.01054
           Z4           0.00000   0.00000   0.00000   0.00000   0.00000
                          Z2        X3        Y3        Z3        X4
           Z2           0.13179
           X3           0.00000   0.04253
           Y3           0.00000   0.00000   0.04253
           Z3          -0.13179   0.00000   0.00000   0.18049
           X4           0.00000  -0.01924   0.00000   0.00000   0.00871
           Y4           0.00000   0.00000  -0.01924   0.00000   0.00000
           Z4           0.00000   0.00000   0.00000  -0.04870   0.00000
                          Y4        Z4
           Y4           0.00871
           Z4           0.00000   0.04870
 ITU=  0
     Eigenvalues ---    0.06398   0.06398   0.06507   0.20220   0.20220
     Eigenvalues ---    0.29591   0.75000
 Quadratic step=3.240D-01 exceeds max=3.000D-01 adjusted using Lamda=-5.999D-03.
 Angle between NR and scaled steps=   1.49 degrees.
 Angle between quadratic step and forces=  38.85 degrees.
 ClnCor:  largest displacement from symmetrization is 0.00D+00 for atom     0.
 Linear search not attempted -- first point.
 ClnCor:  largest displacement from symmetrization is 1.41D-16 for atom     1.
 B after Tr=     0.000000    0.000000   -0.000000
         Rot=    1.000000    0.000000    0.000000    0.000000 Ang=   0.00 deg.
 Variable       Old X    -DE/DX   Delta X   Delta X   Delta X     New X
                                 (Linear)    (Quad)   (Total)
    X1        0.00000  -0.00000   0.00000   0.00000   0.00000   0.00000
    Y1        0.00000  -0.00000   0.00000   0.00000   0.00000   0.00000
    Z1        0.00000   0.00671   0.00000   0.00888   0.00888   0.00888
    X2        0.00000  -0.00000   0.00000   0.00000   0.00000   0.00000
    Y2        0.00000  -0.00000   0.00000   0.00000   0.00000   0.00000
    Z2        8.43361  -0.03662   0.00000  -0.22716  -0.22716   8.20645
    X3        0.00000  -0.00000   0.00000   0.00000   0.00000   0.00000
    Y3        0.00000  -0.00000   0.00000   0.00000   0.00000   0.00000
    Z3       12.86239   0.02262   0.00000   0.02352   0.02352  12.88591
    X4        0.00000  -0.00000   0.00000   0.00000   0.00000   0.00000
    Y4        0.00000  -0.00000   0.00000   0.00000   0.00000   0.00000
    Z4       18.22028   0.00729   0.00000   0.19476   0.19476  18.41504
         Item               Value     Threshold  Converged?
 Maximum Force            0.036619     0.000450     NO 
 RMS     Force            0.012750     0.000300     NO 
 Maximum Displacement     0.227155     0.001800     NO 
 RMS     Displacement     0.086680     0.001200     NO 
 Predicted change in Energy=-5.434978D-03
 GradGradGradGradGradGradGradGradGradGradGradGradGradGradGradGradGradGrad

 Leave Link  103 at Fri Sep 29 22:52:06 2023, MaxMem=  1610612736 cpu:               1.3 elap:               0.1
 (Enter /home/sekinelabo/g16/l9999.exe)
 1\1\GINC-SEKINELABO-XA7R-R37\Force\RB3LYP\6-311+G(d)\Na4\SEKINELABO\29
 -Sep-2023\0\\#p B3LYP/6-311+g(d) force\\\0,1\Na,0.,0.,0.\Na,0.,0.,4.46
 28741735\Na,0.,0.,6.8064816004\Na,0.,0.,9.6417563355\\Version=ES64L-G1
 6RevB.01\State=1-SG\HF=-649.1657645\RMSD=2.029e-09\RMSF=1.275e-02\Dipo
 le=0.,0.,0.2945422\Quadrupole=-6.0466084,-6.0466084,12.0932167,0.,0.,0
 .\PG=C*V [C*(Na1Na1Na1Na1)]\\@


 LOVE IS BLIND, THAT'S WHY ALL THE WORLD LOVES A LOUVER.
 Job cpu time:       0 days  0 hours  0 minutes 27.5 seconds.
 Elapsed time:       0 days  0 hours  0 minutes  1.8 seconds.
 File lengths (MBytes):  RWF=     11 Int=      0 D2E=      0 Chk=      2 Scr=      1
 Normal termination of Gaussian 16 at Fri Sep 29 22:52:06 2023.
 Initial command:
 /home/sekinelabo/g16/l1.exe "/home/sekinelabo/g16temp/Gau-90089.inp" -scrdir="/home/sekinelabo/g16temp/"
 Entering Link 1 = /home/sekinelabo/g16/l1.exe PID=     90334.
  
 Copyright (c) 1988-2017, Gaussian, Inc.  All Rights Reserved.
  
 This is part of the Gaussian(R) 16 program.  It is based on
 the Gaussian(R) 09 system (copyright 2009, Gaussian, Inc.),
 the Gaussian(R) 03 system (copyright 2003, Gaussian, Inc.),
 the Gaussian(R) 98 system (copyright 1998, Gaussian, Inc.),
 the Gaussian(R) 94 system (copyright 1995, Gaussian, Inc.),
 the Gaussian 92(TM) system (copyright 1992, Gaussian, Inc.),
 the Gaussian 90(TM) system (copyright 1990, Gaussian, Inc.),
 the Gaussian 88(TM) system (copyright 1988, Gaussian, Inc.),
 the Gaussian 86(TM) system (copyright 1986, Carnegie Mellon
 University), and the Gaussian 82(TM) system (copyright 1983,
 Carnegie Mellon University). Gaussian is a federally registered
 trademark of Gaussian, Inc.
  
 This software contains proprietary and confidential information,
 including trade secrets, belonging to Gaussian, Inc.
  
 This software is provided under written license and may be
 used, copied, transmitted, or stored only in accord with that
 written license.
  
 The following legend is applicable only to US Government
 contracts under FAR:
  
                    RESTRICTED RIGHTS LEGEND
  
 Use, reproduction and disclosure by the US Government is
 subject to restrictions as set forth in subparagraphs (a)
 and (c) of the Commercial Computer Software - Restricted
 Rights clause in FAR 52.227-19.
  
 Gaussian, Inc.
 340 Quinnipiac St., Bldg. 40, Wallingford CT 06492
  
  
 ---------------------------------------------------------------
 Warning -- This program may not be used in any manner that
 competes with the business of Gaussian, Inc. or will provide
 assistance to any competitor of Gaussian, Inc.  The licensee
 of this program is prohibited from giving any competitor of
 Gaussian, Inc. access to this program.  By using this program,
 the user acknowledges that Gaussian, Inc. is engaged in the
 business of creating and licensing software in the field of
 computational chemistry and represents and warrants to the
 licensee that it is not a competitor of Gaussian, Inc. and that
 it will not use this program in any manner prohibited above.
 ---------------------------------------------------------------
  

 Cite this work as:
 Gaussian 16, Revision B.01,
 M. J. Frisch, G. W. Trucks, H. B. Schlegel, G. E. Scuseria, 
 M. A. Robb, J. R. Cheeseman, G. Scalmani, V. Barone, 
 G. A. Petersson, H. Nakatsuji, X. Li, M. Caricato, A. V. Marenich, 
 J. Bloino, B. G. Janesko, R. Gomperts, B. Mennucci, H. P. Hratchian, 
 J. V. Ortiz, A. F. Izmaylov, J. L. Sonnenberg, D. Williams-Young, 
 F. Ding, F. Lipparini, F. Egidi, J. Goings, B. Peng, A. Petrone, 
 T. Henderson, D. Ranasinghe, V. G. Zakrzewski, J. Gao, N. Rega, 
 G. Zheng, W. Liang, M. Hada, M. Ehara, K. Toyota, R. Fukuda, 
 J. Hasegawa, M. Ishida, T. Nakajima, Y. Honda, O. Kitao, H. Nakai, 
 T. Vreven, K. Throssell, J. A. Montgomery, Jr., J. E. Peralta, 
 F. Ogliaro, M. J. Bearpark, J. J. Heyd, E. N. Brothers, K. N. Kudin, 
 V. N. Staroverov, T. A. Keith, R. Kobayashi, J. Normand, 
 K. Raghavachari, A. P. Rendell, J. C. Burant, S. S. Iyengar, 
 J. Tomasi, M. Cossi, J. M. Millam, M. Klene, C. Adamo, R. Cammi, 
 J. W. Ochterski, R. L. Martin, K. Morokuma, O. Farkas, 
 J. B. Foresman, and D. J. Fox, Gaussian, Inc., Wallingford CT, 2016.
 
 ******************************************
 Gaussian 16:  ES64L-G16RevB.01 20-Dec-2017
                29-Sep-2023 
 ******************************************
 %NProcShared=16
 Will use up to   16 processors via shared memory.
 %mem=12GB
 %Chk=checkpoint.chk
 -------------------------
 #p B3LYP/6-311+g(d) force
 -------------------------
 1/10=7,30=1,38=1/1,3;
 2/12=2,17=6,18=5,40=1/2;
 3/5=4,6=6,7=11,11=2,25=1,30=1,71=1,74=-5/1,2,3;
 4//1;
 5/5=2,38=5/2;
 6/7=2,8=2,9=2,10=2,28=1/1;
 7/29=1/1,2,3,16;
 1/10=7,30=1/3;
 99//99;
 Leave Link    1 at Fri Sep 29 22:52:06 2023, MaxMem=  1610612736 cpu:               0.2 elap:               0.0
 (Enter /home/sekinelabo/g16/l101.exe)


 Symbolic Z-matrix:
 Charge =  0 Multiplicity = 1
 Na                    0.        0.        0. 
 Na                    0.        0.        4.62263 
 Na                    0.        0.        8.24315 
 Na                    0.        0.        11.17101 
 
 ITRead=  0  0  0  0
 MicOpt= -1 -1 -1 -1
 NAtoms=      4 NQM=        4 NQMF=       0 NMMI=      0 NMMIF=      0
                NMic=       0 NMicF=      0.
                    Isotopes and Nuclear Properties:
 (Nuclear quadrupole moments (NQMom) in fm**2, nuclear magnetic moments (NMagM)
  in nuclear magnetons)

  Atom         1           2           3           4
 IAtWgt=          23          23          23          23
 AtmWgt=  22.9897697  22.9897697  22.9897697  22.9897697
 NucSpn=           3           3           3           3
 AtZEff=  -0.0000000  -0.0000000  -0.0000000  -0.0000000
 NQMom=   10.4000000  10.4000000  10.4000000  10.4000000
 NMagM=    2.2175200   2.2175200   2.2175200   2.2175200
 AtZNuc=  11.0000000  11.0000000  11.0000000  11.0000000
 Leave Link  101 at Fri Sep 29 22:52:06 2023, MaxMem=  1610612736 cpu:               1.9 elap:               0.1
 (Enter /home/sekinelabo/g16/l103.exe)

 GradGradGradGradGradGradGradGradGradGradGradGradGradGradGradGradGradGrad
 Berny optimization.
 Initialization pass.
 Trust Radius=3.00D-01 FncErr=1.00D-07 GrdErr=1.00D-07 EigMax=2.50D+02 EigMin=1.00D-04
 Number of steps in this run=      2 maximum allowed number of steps=      2.
 GradGradGradGradGradGradGradGradGradGradGradGradGradGradGradGradGradGrad

 Leave Link  103 at Fri Sep 29 22:52:06 2023, MaxMem=  1610612736 cpu:               0.1 elap:               0.0
 (Enter /home/sekinelabo/g16/l202.exe)
                          Input orientation:                          
 ---------------------------------------------------------------------
 Center     Atomic      Atomic             Coordinates (Angstroms)
 Number     Number       Type             X           Y           Z
 ---------------------------------------------------------------------
      1         11           0        0.000000    0.000000    0.000000
      2         11           0        0.000000    0.000000    4.622635
      3         11           0        0.000000    0.000000    8.243149
      4         11           0        0.000000    0.000000   11.171006
 ---------------------------------------------------------------------
                    Distance matrix (angstroms):
                    1          2          3          4
     1  Na   0.000000
     2  Na   4.622635   0.000000
     3  Na   8.243149   3.620514   0.000000
     4  Na  11.171006   6.548371   2.927857   0.000000
 Stoichiometry    Na4
 Framework group  C*V[C*(NaNaNaNa)]
 Deg. of freedom     3
 Full point group                 C*V     NOp   4
 Largest Abelian subgroup         C2V     NOp   4
 Largest concise Abelian subgroup C1      NOp   1
                         Standard orientation:                         
 ---------------------------------------------------------------------
 Center     Atomic      Atomic             Coordinates (Angstroms)
 Number     Number       Type             X           Y           Z
 ---------------------------------------------------------------------
      1         11           0        0.000000    0.000000    6.009197
      2         11           0        0.000000    0.000000    1.386563
      3         11           0        0.000000    0.000000   -2.233952
      4         11           0        0.000000    0.000000   -5.161808
 ---------------------------------------------------------------------
 Rotational constants (GHZ):           0.0000000           0.3155371           0.3155371
 Leave Link  202 at Fri Sep 29 22:52:06 2023, MaxMem=  1610612736 cpu:               0.0 elap:               0.0
 (Enter /home/sekinelabo/g16/l301.exe)
 Standard basis: 6-311+G(d) (5D, 7F)
 Ernie: Thresh=  0.10000D-02 Tol=  0.10000D-05 Strict=F.
 There are    64 symmetry adapted cartesian basis functions of A1  symmetry.
 There are     4 symmetry adapted cartesian basis functions of A2  symmetry.
 There are    28 symmetry adapted cartesian basis functions of B1  symmetry.
 There are    28 symmetry adapted cartesian basis functions of B2  symmetry.
 There are    60 symmetry adapted basis functions of A1  symmetry.
 There are     4 symmetry adapted basis functions of A2  symmetry.
 There are    28 symmetry adapted basis functions of B1  symmetry.
 There are    28 symmetry adapted basis functions of B2  symmetry.
   120 basis functions,   200 primitive gaussians,   124 cartesian basis functions
    22 alpha electrons       22 beta electrons
       nuclear repulsion energy        76.6839786037 Hartrees.
 IExCor=  402 DFT=T Ex+Corr=B3LYP ExCW=0 ScaHFX=  0.200000
 ScaDFX=  0.800000  0.720000  1.000000  0.810000 ScalE2=  1.000000  1.000000
 IRadAn=      5 IRanWt=     -1 IRanGd=            0 ICorTp=0 IEmpDi=  4
 NAtoms=    4 NActive=    4 NUniq=    4 SFac= 1.00D+00 NAtFMM=   60 NAOKFM=F Big=F
 Integral buffers will be    131072 words long.
 Raffenetti 2 integral format.
 Two-electron integral symmetry is turned on.
 Leave Link  301 at Fri Sep 29 22:52:06 2023, MaxMem=  1610612736 cpu:               0.4 elap:               0.0
 (Enter /home/sekinelabo/g16/l302.exe)
 NPDir=0 NMtPBC=     1 NCelOv=     1 NCel=       1 NClECP=     1 NCelD=      1
         NCelK=      1 NCelE2=     1 NClLst=     1 CellRange=     0.0.
 One-electron integrals computed using PRISM.
 One-electron integral symmetry used in STVInt
 NBasis=   120 RedAO= T EigKep=  4.27D-06  NBF=    60     4    28    28
 NBsUse=   119 1.00D-06 EigRej=  2.63D-07 NBFU=    59     4    28    28
 Precomputing XC quadrature grid using
 IXCGrd= 4 IRadAn=           5 IRanWt=          -1 IRanGd=           0 AccXCQ= 0.00D+00.
 Generated NRdTot=       0 NPtTot=           0 NUsed=           0 NTot=          32
 NSgBfM=   113   113   113   113   113 MxSgAt=     4 MxSgA2=     4.
 Leave Link  302 at Fri Sep 29 22:52:06 2023, MaxMem=  1610612736 cpu:               1.4 elap:               0.1
 (Enter /home/sekinelabo/g16/l303.exe)
 DipDrv:  MaxL=1.
 Leave Link  303 at Fri Sep 29 22:52:06 2023, MaxMem=  1610612736 cpu:               0.6 elap:               0.0
 (Enter /home/sekinelabo/g16/l401.exe)
 ExpMin= 7.60D-03 ExpMax= 3.62D+04 ExpMxC= 1.21D+03 IAcc=3 IRadAn=         5 AccDes= 0.00D+00
 Harris functional with IExCor=  402 and IRadAn=       5 diagonalized for initial guess.
 HarFok:  IExCor=  402 AccDes= 0.00D+00 IRadAn=         5 IDoV= 1 UseB2=F ITyADJ=14
 ICtDFT=  3500011 ScaDFX=  1.000000  1.000000  1.000000  1.000000
 FoFCou: FMM=F IPFlag=           0 FMFlag=      100000 FMFlg1=           0
         NFxFlg=           0 DoJE=T BraDBF=F KetDBF=T FulRan=T
         wScrn=  0.000000 ICntrl=       500 IOpCl=  0 I1Cent=   200000004 NGrid=           0
         NMat0=    1 NMatS0=      1 NMatT0=    0 NMatD0=    1 NMtDS0=    0 NMtDT0=    0
 Petite list used in FoFCou.
 Harris En= -649.060315859573    
 JPrj=0 DoOrth=F DoCkMO=F.
 Initial guess orbital symmetries:
       Occupied  (SG) (SG) (SG) (SG) (SG) (SG) (SG) (SG) (SG) (PI)
                 (PI) (PI) (PI) (SG) (SG) (PI) (PI) (SG) (PI) (PI)
                 (SG) (SG)
       Virtual   (SG) (SG) (PI) (PI) (PI) (PI) (SG) (PI) (PI) (SG)
                 (SG) (SG) (PI) (PI) (SG) (PI) (PI) (SG) (PI) (PI)
                 (SG) (PI) (PI) (PI) (PI) (SG) (SG) (SG) (SG) (SG)
                 (PI) (PI) (SG) (PI) (PI) (PI) (PI) (SG) (PI) (PI)
                 (SG) (SG) (SG) (SG) (SG) (PI) (PI) (SG) (DLTA)
                 (DLTA) (DLTA) (DLTA) (PI) (PI) (DLTA) (DLTA) (PI)
                 (PI) (DLTA) (DLTA) (SG) (SG) (PI) (PI) (PI) (PI)
                 (PI) (PI) (PI) (PI) (SG) (SG) (PI) (PI) (SG) (SG)
                 (SG) (SG) (SG) (SG) (SG) (SG) (PI) (PI) (PI) (PI)
                 (PI) (PI) (PI) (PI) (SG) (SG) (SG) (SG) (SG) (SG)
                 (SG)
 The electronic state of the initial guess is 1-SG.
 Leave Link  401 at Fri Sep 29 22:52:06 2023, MaxMem=  1610612736 cpu:               1.6 elap:               0.1
 (Enter /home/sekinelabo/g16/l502.exe)
 Keep R1 ints in memory in symmetry-blocked form, NReq=41601370.
 FoFCou: FMM=F IPFlag=           0 FMFlag=           0 FMFlg1=           0
         NFxFlg=           0 DoJE=F BraDBF=F KetDBF=F FulRan=T
         wScrn=  0.000000 ICntrl=       600 IOpCl=  0 I1Cent=           0 NGrid=           0
         NMat0=    1 NMatS0=   7260 NMatT0=    0 NMatD0=    1 NMtDS0=    0 NMtDT0=    0
 Petite list used in FoFCou.
 Closed shell SCF:
 Using DIIS extrapolation, IDIIS=  1040.
 NGot=  1610612736 LenX=  1603303456 LenY=  1603287639
 Requested convergence on RMS density matrix=1.00D-08 within 128 cycles.
 Requested convergence on MAX density matrix=1.00D-06.
 Requested convergence on             energy=1.00D-06.
 No special actions if energy rises.

 Cycle   1  Pass 1  IDiag  1:
 E= -649.166762103284    
 DIIS: error= 1.48D-02 at cycle   1 NSaved=   1.
 NSaved= 1 IEnMin= 1 EnMin= -649.166762103284     IErMin= 1 ErrMin= 1.48D-02
 ErrMax= 1.48D-02  0.00D+00 EMaxC= 1.00D-01 BMatC= 2.70D-02 BMatP= 2.70D-02
 IDIUse=3 WtCom= 8.52D-01 WtEn= 1.48D-01
 Coeff-Com:  0.100D+01
 Coeff-En:   0.100D+01
 Coeff:      0.100D+01
 Gap=     0.027 Goal=   None    Shift=    0.000
 GapD=    0.027 DampG=0.250 DampE=0.500 DampFc=0.2500 IDamp=-1.
 Damping current iteration by 2.50D-01
 RMSDP=2.15D-02 MaxDP=9.16D-01              OVMax= 4.85D-01

 Cycle   2  Pass 1  IDiag  1:
 E= -649.173764079064     Delta-E=       -0.007001975780 Rises=F Damp=T
 DIIS: error= 1.03D-02 at cycle   2 NSaved=   2.
 NSaved= 2 IEnMin= 2 EnMin= -649.173764079064     IErMin= 2 ErrMin= 1.03D-02
 ErrMax= 1.03D-02  0.00D+00 EMaxC= 1.00D-01 BMatC= 1.01D-02 BMatP= 2.70D-02
 IDIUse=3 WtCom= 8.97D-01 WtEn= 1.03D-01
 Coeff-Com: -0.112D+01 0.212D+01
 Coeff-En:   0.000D+00 0.100D+01
 Coeff:     -0.101D+01 0.201D+01
 Gap=     0.060 Goal=   None    Shift=    0.000
 RMSDP=1.16D-02 MaxDP=4.44D-01 DE=-7.00D-03 OVMax= 7.38D-01

 Cycle   3  Pass 1  IDiag  1:
 E= -649.132454289784     Delta-E=        0.041309789281 Rises=F Damp=F
 DIIS: error= 1.43D-02 at cycle   3 NSaved=   3.
 NSaved= 3 IEnMin= 2 EnMin= -649.173764079064     IErMin= 2 ErrMin= 1.03D-02
 ErrMax= 1.43D-02  0.00D+00 EMaxC= 1.00D-01 BMatC= 5.54D-03 BMatP= 1.01D-02
 IDIUse=3 WtCom= 8.57D-01 WtEn= 1.43D-01
 Rare condition: small coef for last iteration:  0.000D+00
 Coeff-Com: -0.727D+00 0.130D+01 0.427D+00
 Coeff-En:   0.000D+00 0.000D+00 0.100D+01
 Coeff:     -0.727D+00 0.130D+01 0.427D+00
 Gap=     0.018 Goal=   None    Shift=    0.000
 RMSDP=2.06D-02 MaxDP=7.60D-01 DE= 4.13D-02 OVMax= 5.19D-01

 Cycle   4  Pass 1  IDiag  1:
 E= -649.165062277723     Delta-E=       -0.032607987939 Rises=F Damp=F
 DIIS: error= 7.71D-03 at cycle   4 NSaved=   4.
 NSaved= 4 IEnMin= 2 EnMin= -649.173764079064     IErMin= 4 ErrMin= 7.71D-03
 ErrMax= 7.71D-03  0.00D+00 EMaxC= 1.00D-01 BMatC= 2.42D-03 BMatP= 5.54D-03
 IDIUse=3 WtCom= 9.23D-01 WtEn= 7.71D-02
 Coeff-Com: -0.564D-01 0.111D+00 0.379D+00 0.565D+00
 Coeff-En:   0.000D+00 0.000D+00 0.352D+00 0.648D+00
 Coeff:     -0.520D-01 0.103D+00 0.377D+00 0.572D+00
 Gap=     0.035 Goal=   None    Shift=    0.000
 RMSDP=1.27D-02 MaxDP=7.84D-01 DE=-3.26D-02 OVMax= 2.68D-01

 Cycle   5  Pass 1  IDiag  1:
 E= -649.186358193936     Delta-E=       -0.021295916213 Rises=F Damp=F
 DIIS: error= 6.14D-04 at cycle   5 NSaved=   5.
 NSaved= 5 IEnMin= 5 EnMin= -649.186358193936     IErMin= 5 ErrMin= 6.14D-04
 ErrMax= 6.14D-04  0.00D+00 EMaxC= 1.00D-01 BMatC= 3.18D-05 BMatP= 2.42D-03
 IDIUse=3 WtCom= 9.94D-01 WtEn= 6.14D-03
 Coeff-Com: -0.181D-01 0.264D-01 0.553D-01 0.832D-01 0.853D+00
 Coeff-En:   0.000D+00 0.000D+00 0.000D+00 0.000D+00 0.100D+01
 Coeff:     -0.180D-01 0.262D-01 0.549D-01 0.827D-01 0.854D+00
 Gap=     0.033 Goal=   None    Shift=    0.000
 RMSDP=2.61D-03 MaxDP=1.40D-01 DE=-2.13D-02 OVMax= 4.58D-02

 Cycle   6  Pass 1  IDiag  1:
 E= -649.186277910537     Delta-E=        0.000080283399 Rises=F Damp=F
 DIIS: error= 1.11D-03 at cycle   6 NSaved=   6.
 NSaved= 6 IEnMin= 5 EnMin= -649.186358193936     IErMin= 5 ErrMin= 6.14D-04
 ErrMax= 1.11D-03  0.00D+00 EMaxC= 1.00D-01 BMatC= 3.13D-05 BMatP= 3.18D-05
 IDIUse=3 WtCom= 9.94D-01 WtEn= 6.14D-03
 Coeff-Com:  0.272D-02-0.389D-02 0.143D-01-0.467D-01 0.325D+00 0.709D+00
 Coeff-En:   0.000D+00 0.000D+00 0.000D+00 0.000D+00 0.590D+00 0.410D+00
 Coeff:      0.270D-02-0.386D-02 0.142D-01-0.464D-01 0.326D+00 0.707D+00
 Gap=     0.034 Goal=   None    Shift=    0.000
 RMSDP=5.24D-04 MaxDP=1.88D-02 DE= 8.03D-05 OVMax= 2.01D-02

 Cycle   7  Pass 1  IDiag  1:
 E= -649.186505801937     Delta-E=       -0.000227891401 Rises=F Damp=F
 DIIS: error= 3.50D-04 at cycle   7 NSaved=   7.
 NSaved= 7 IEnMin= 7 EnMin= -649.186505801937     IErMin= 7 ErrMin= 3.50D-04
 ErrMax= 3.50D-04  0.00D+00 EMaxC= 1.00D-01 BMatC= 4.80D-06 BMatP= 3.13D-05
 IDIUse=3 WtCom= 9.96D-01 WtEn= 3.50D-03
 Coeff-Com:  0.578D-02-0.808D-02 0.108D-01-0.381D-01 0.144D+00 0.386D+00
 Coeff-Com:  0.500D+00
 Coeff-En:   0.000D+00 0.000D+00 0.000D+00 0.000D+00 0.000D+00 0.000D+00
 Coeff-En:   0.100D+01
 Coeff:      0.576D-02-0.805D-02 0.107D-01-0.380D-01 0.143D+00 0.384D+00
 Coeff:      0.502D+00
 Gap=     0.034 Goal=   None    Shift=    0.000
 RMSDP=2.03D-04 MaxDP=9.24D-03 DE=-2.28D-04 OVMax= 4.11D-03

 Cycle   8  Pass 1  IDiag  1:
 E= -649.186528854133     Delta-E=       -0.000023052196 Rises=F Damp=F
 DIIS: error= 2.13D-04 at cycle   8 NSaved=   8.
 NSaved= 8 IEnMin= 8 EnMin= -649.186528854133     IErMin= 8 ErrMin= 2.13D-04
 ErrMax= 2.13D-04  0.00D+00 EMaxC= 1.00D-01 BMatC= 9.99D-07 BMatP= 4.80D-06
 IDIUse=3 WtCom= 9.98D-01 WtEn= 2.13D-03
 Coeff-Com:  0.368D-02-0.488D-02 0.606D-02-0.148D-01 0.315D-01 0.501D-01
 Coeff-Com:  0.100D+00 0.828D+00
 Coeff-En:   0.000D+00 0.000D+00 0.000D+00 0.000D+00 0.000D+00 0.000D+00
 Coeff-En:   0.000D+00 0.100D+01
 Coeff:      0.367D-02-0.487D-02 0.605D-02-0.147D-01 0.315D-01 0.500D-01
 Coeff:      0.100D+00 0.828D+00
 Gap=     0.034 Goal=   None    Shift=    0.000
 RMSDP=1.32D-04 MaxDP=4.70D-03 DE=-2.31D-05 OVMax= 2.88D-03

 Cycle   9  Pass 1  IDiag  1:
 E= -649.186535288048     Delta-E=       -0.000006433915 Rises=F Damp=F
 DIIS: error= 8.13D-05 at cycle   9 NSaved=   9.
 NSaved= 9 IEnMin= 9 EnMin= -649.186535288048     IErMin= 9 ErrMin= 8.13D-05
 ErrMax= 8.13D-05  0.00D+00 EMaxC= 1.00D-01 BMatC= 2.74D-07 BMatP= 9.99D-07
 IDIUse=1 WtCom= 1.00D+00 WtEn= 0.00D+00
 Coeff-Com:  0.243D-02-0.321D-02 0.315D-02-0.561D-02-0.138D-02-0.286D-01
 Coeff-Com: -0.399D-01 0.494D+00 0.579D+00
 Coeff:      0.243D-02-0.321D-02 0.315D-02-0.561D-02-0.138D-02-0.286D-01
 Coeff:     -0.399D-01 0.494D+00 0.579D+00
 Gap=     0.034 Goal=   None    Shift=    0.000
 RMSDP=5.91D-05 MaxDP=2.64D-03 DE=-6.43D-06 OVMax= 1.19D-03

 Cycle  10  Pass 1  IDiag  1:
 E= -649.186536866961     Delta-E=       -0.000001578913 Rises=F Damp=F
 DIIS: error= 4.17D-05 at cycle  10 NSaved=  10.
 NSaved=10 IEnMin=10 EnMin= -649.186536866961     IErMin=10 ErrMin= 4.17D-05
 ErrMax= 4.17D-05  0.00D+00 EMaxC= 1.00D-01 BMatC= 4.59D-08 BMatP= 2.74D-07
 IDIUse=1 WtCom= 1.00D+00 WtEn= 0.00D+00
 Coeff-Com:  0.357D-03-0.486D-03 0.376D-03 0.498D-03-0.365D-02-0.259D-01
 Coeff-Com: -0.300D-01-0.250D-01-0.494D-01 0.113D+01
 Coeff:      0.357D-03-0.486D-03 0.376D-03 0.498D-03-0.365D-02-0.259D-01
 Coeff:     -0.300D-01-0.250D-01-0.494D-01 0.113D+01
 Gap=     0.034 Goal=   None    Shift=    0.000
 RMSDP=3.87D-05 MaxDP=1.51D-03 DE=-1.58D-06 OVMax= 1.13D-03

 Cycle  11  Pass 1  IDiag  1:
 E= -649.186537260162     Delta-E=       -0.000000393201 Rises=F Damp=F
 DIIS: error= 1.36D-06 at cycle  11 NSaved=  11.
 NSaved=11 IEnMin=11 EnMin= -649.186537260162     IErMin=11 ErrMin= 1.36D-06
 ErrMax= 1.36D-06  0.00D+00 EMaxC= 1.00D-01 BMatC= 1.10D-10 BMatP= 4.59D-08
 IDIUse=1 WtCom= 1.00D+00 WtEn= 0.00D+00
 Coeff-Com: -0.148D-04 0.161D-04 0.906D-04 0.353D-04 0.121D-02-0.381D-03
 Coeff-Com: -0.143D-02-0.143D-01-0.187D-01 0.180D+00 0.854D+00
 Coeff:     -0.148D-04 0.161D-04 0.906D-04 0.353D-04 0.121D-02-0.381D-03
 Coeff:     -0.143D-02-0.143D-01-0.187D-01 0.180D+00 0.854D+00
 Gap=     0.034 Goal=   None    Shift=    0.000
 RMSDP=4.36D-06 MaxDP=1.81D-04 DE=-3.93D-07 OVMax= 5.87D-05

 Cycle  12  Pass 1  IDiag  1:
 E= -649.186537260661     Delta-E=       -0.000000000499 Rises=F Damp=F
 DIIS: error= 7.95D-07 at cycle  12 NSaved=  12.
 NSaved=12 IEnMin=12 EnMin= -649.186537260661     IErMin=12 ErrMin= 7.95D-07
 ErrMax= 7.95D-07  0.00D+00 EMaxC= 1.00D-01 BMatC= 2.17D-11 BMatP= 1.10D-10
 IDIUse=1 WtCom= 1.00D+00 WtEn= 0.00D+00
 Coeff-Com: -0.184D-05 0.206D-05 0.573D-05 0.159D-04 0.243D-03 0.242D-03
 Coeff-Com: -0.437D-03-0.507D-03-0.145D-02-0.134D-01 0.865D-01 0.929D+00
 Coeff:     -0.184D-05 0.206D-05 0.573D-05 0.159D-04 0.243D-03 0.242D-03
 Coeff:     -0.437D-03-0.507D-03-0.145D-02-0.134D-01 0.865D-01 0.929D+00
 Gap=     0.034 Goal=   None    Shift=    0.000
 RMSDP=8.80D-07 MaxDP=3.22D-05 DE=-4.99D-10 OVMax= 2.10D-05

 Cycle  13  Pass 1  IDiag  1:
 E= -649.186537260844     Delta-E=       -0.000000000183 Rises=F Damp=F
 DIIS: error= 1.30D-07 at cycle  13 NSaved=  13.
 NSaved=13 IEnMin=13 EnMin= -649.186537260844     IErMin=13 ErrMin= 1.30D-07
 ErrMax= 1.30D-07  0.00D+00 EMaxC= 1.00D-01 BMatC= 7.55D-13 BMatP= 2.17D-11
 IDIUse=1 WtCom= 1.00D+00 WtEn= 0.00D+00
 Coeff-Com:  0.425D-05-0.564D-05-0.943D-06-0.353D-05 0.210D-04 0.746D-04
 Coeff-Com:  0.132D-03 0.119D-02 0.205D-02-0.194D-01-0.484D-01 0.296D+00
 Coeff-Com:  0.769D+00
 Coeff:      0.425D-05-0.564D-05-0.943D-06-0.353D-05 0.210D-04 0.746D-04
 Coeff:      0.132D-03 0.119D-02 0.205D-02-0.194D-01-0.484D-01 0.296D+00
 Coeff:      0.769D+00
 Gap=     0.034 Goal=   None    Shift=    0.000
 RMSDP=2.59D-07 MaxDP=9.20D-06 DE=-1.83D-10 OVMax= 2.89D-06

 Cycle  14  Pass 1  IDiag  1:
 E= -649.186537260848     Delta-E=       -0.000000000003 Rises=F Damp=F
 DIIS: error= 2.18D-08 at cycle  14 NSaved=  14.
 NSaved=14 IEnMin=14 EnMin= -649.186537260848     IErMin=14 ErrMin= 2.18D-08
 ErrMax= 2.18D-08  0.00D+00 EMaxC= 1.00D-01 BMatC= 1.65D-14 BMatP= 7.55D-13
 IDIUse=1 WtCom= 1.00D+00 WtEn= 0.00D+00
 Coeff-Com: -0.372D-06 0.482D-06 0.450D-08-0.276D-06-0.165D-05-0.288D-04
 Coeff-Com:  0.123D-04-0.868D-04-0.306D-03 0.248D-02-0.116D-02-0.563D-01
 Coeff-Com:  0.537D-01 0.100D+01
 Coeff:     -0.372D-06 0.482D-06 0.450D-08-0.276D-06-0.165D-05-0.288D-04
 Coeff:      0.123D-04-0.868D-04-0.306D-03 0.248D-02-0.116D-02-0.563D-01
 Coeff:      0.537D-01 0.100D+01
 Gap=     0.034 Goal=   None    Shift=    0.000
 RMSDP=2.87D-08 MaxDP=8.17D-07 DE=-3.41D-12 OVMax= 3.42D-07

 Cycle  15  Pass 1  IDiag  1:
 E= -649.186537260850     Delta-E=       -0.000000000002 Rises=F Damp=F
 DIIS: error= 1.35D-09 at cycle  15 NSaved=  15.
 NSaved=15 IEnMin=15 EnMin= -649.186537260850     IErMin=15 ErrMin= 1.35D-09
 ErrMax= 1.35D-09  0.00D+00 EMaxC= 1.00D-01 BMatC= 1.35D-16 BMatP= 1.65D-14
 IDIUse=1 WtCom= 1.00D+00 WtEn= 0.00D+00
 Coeff-Com:  0.127D-07-0.183D-07 0.567D-08-0.370D-07-0.485D-06 0.110D-05
 Coeff-Com: -0.385D-05 0.529D-05-0.136D-04-0.650D-05 0.634D-03 0.998D-03
 Coeff-Com: -0.925D-02-0.350D-01 0.104D+01
 Coeff:      0.127D-07-0.183D-07 0.567D-08-0.370D-07-0.485D-06 0.110D-05
 Coeff:     -0.385D-05 0.529D-05-0.136D-04-0.650D-05 0.634D-03 0.998D-03
 Coeff:     -0.925D-02-0.350D-01 0.104D+01
 Gap=     0.034 Goal=   None    Shift=    0.000
 RMSDP=1.52D-09 MaxDP=4.15D-08 DE=-2.05D-12 OVMax= 3.52D-08

 SCF Done:  E(RB3LYP) =  -649.186537261     A.U. after   15 cycles
            NFock= 15  Conv=0.15D-08     -V/T= 2.0029
 KE= 6.473015428786D+02 PE=-1.712421259951D+03 EE= 3.392492012083D+02
 Leave Link  502 at Fri Sep 29 22:52:07 2023, MaxMem=  1610612736 cpu:              12.4 elap:               0.8
 (Enter /home/sekinelabo/g16/l601.exe)
 Copying SCF densities to generalized density rwf, IOpCl= 0 IROHF=0.

 **********************************************************************

            Population analysis using the SCF Density.

 **********************************************************************

 Orbital symmetries:
       Occupied  (SG) (SG) (SG) (SG) (SG) (SG) (SG) (SG) (PI) (PI)
                 (SG) (PI) (PI) (SG) (SG) (PI) (PI) (SG) (PI) (PI)
                 (SG) (SG)
       Virtual   (SG) (SG) (PI) (PI) (PI) (PI) (SG) (PI) (PI) (SG)
                 (SG) (SG) (PI) (PI) (SG) (PI) (PI) (SG) (PI) (PI)
                 (SG) (PI) (PI) (PI) (PI) (SG) (SG) (SG) (SG) (SG)
                 (PI) (PI) (SG) (PI) (PI) (PI) (PI) (SG) (PI) (PI)
                 (SG) (SG) (SG) (SG) (SG) (PI) (PI) (SG) (DLTA)
                 (DLTA) (DLTA) (DLTA) (PI) (PI) (DLTA) (DLTA) (PI)
                 (PI) (SG) (DLTA) (DLTA) (SG) (PI) (PI) (PI) (PI)
                 (PI) (PI) (PI) (PI) (SG) (SG) (SG) (PI) (PI) (SG)
                 (SG) (SG) (SG) (SG) (SG) (SG) (PI) (PI) (PI) (PI)
                 (PI) (PI) (SG) (PI) (PI) (SG) (SG) (SG) (SG) (SG)
                 (SG)
 The electronic state is 1-SG.
 Alpha  occ. eigenvalues --  -38.46217 -38.45382 -38.45058 -38.44019  -2.21896
 Alpha  occ. eigenvalues --   -2.21088  -2.20859  -2.19845  -1.15573  -1.15573
 Alpha  occ. eigenvalues --   -1.15524  -1.14774  -1.14774  -1.14708  -1.14577
 Alpha  occ. eigenvalues --   -1.14501  -1.14501  -1.13505  -1.13500  -1.13500
 Alpha  occ. eigenvalues --   -0.14321  -0.11884
 Alpha virt. eigenvalues --   -0.08469  -0.04429  -0.03015  -0.03015  -0.01889
 Alpha virt. eigenvalues --   -0.01889  -0.01602  -0.00241  -0.00241   0.00082
 Alpha virt. eigenvalues --    0.00196   0.01041   0.01170   0.01170   0.01208
 Alpha virt. eigenvalues --    0.01406   0.01406   0.02242   0.02367   0.02367
 Alpha virt. eigenvalues --    0.02639   0.02647   0.02647   0.03905   0.03905
 Alpha virt. eigenvalues --    0.04003   0.04469   0.05401   0.05535   0.07171
 Alpha virt. eigenvalues --    0.07362   0.07362   0.07531   0.08042   0.08042
 Alpha virt. eigenvalues --    0.08966   0.08966   0.09498   0.10746   0.10746
 Alpha virt. eigenvalues --    0.12074   0.12525   0.15192   0.15794   0.18824
 Alpha virt. eigenvalues --    0.27964   0.27964   0.31405   0.32136   0.32136
 Alpha virt. eigenvalues --    0.34327   0.34327   0.34329   0.34329   0.34986
 Alpha virt. eigenvalues --    0.34986   0.37521   0.37521   0.38140   0.38354
 Alpha virt. eigenvalues --    0.38354   0.40170   0.42639   0.42639   0.42987
 Alpha virt. eigenvalues --    0.42987   0.44168   0.44168   0.44827   0.44827
 Alpha virt. eigenvalues --    0.45175   0.46944   0.51450   0.51481   0.51481
 Alpha virt. eigenvalues --    0.55392   0.76668   1.99955   2.03713   2.10973
 Alpha virt. eigenvalues --    2.16229   4.41800   4.42600   4.42600   4.43168
 Alpha virt. eigenvalues --    4.43168   4.44187   4.44187   4.45518   4.46593
 Alpha virt. eigenvalues --    4.46593   4.49749   4.69246  96.18801  96.23292
 Alpha virt. eigenvalues --   96.32426  96.39051
          Condensed to atoms (all electrons):
               1          2          3          4
     1  Na  10.685253   0.160609   0.007331   0.005267
     2  Na   0.160609  10.625358   0.019232   0.155606
     3  Na   0.007331   0.019232  11.530063  -0.112025
     4  Na   0.005267   0.155606  -0.112025  10.687285
 Mulliken charges:
               1
     1  Na   0.141540
     2  Na   0.039194
     3  Na  -0.444600
     4  Na   0.263866
 Sum of Mulliken charges =  -0.00000
 Mulliken charges with hydrogens summed into heavy atoms:
               1
     1  Na   0.141540
     2  Na   0.039194
     3  Na  -0.444600
     4  Na   0.263866
 Electronic spatial extent (au):  <R**2>=           2813.9729
 Charge=             -0.0000 electrons
 Dipole moment (field-independent basis, Debye):
    X=              0.0000    Y=              0.0000    Z=             -0.2041  Tot=              0.2041
 Quadrupole moment (field-independent basis, Debye-Ang):
   XX=            -44.6901   YY=            -44.6901   ZZ=            -14.5933
   XY=              0.0000   XZ=              0.0000   YZ=              0.0000
 Traceless Quadrupole moment (field-independent basis, Debye-Ang):
   XX=            -10.0323   YY=            -10.0323   ZZ=             20.0645
   XY=              0.0000   XZ=              0.0000   YZ=              0.0000
 Octapole moment (field-independent basis, Debye-Ang**2):
  XXX=              0.0000  YYY=              0.0000  ZZZ=             10.9041  XYY=              0.0000
  XXY=              0.0000  XXZ=             -5.4379  XZZ=              0.0000  YZZ=              0.0000
  YYZ=             -5.4379  XYZ=              0.0000
 Hexadecapole moment (field-independent basis, Debye-Ang**3):
 XXXX=           -189.6731 YYYY=           -189.6731 ZZZZ=          -2607.5327 XXXY=              0.0000
 XXXZ=              0.0000 YYYX=              0.0000 YYYZ=              0.0000 ZZZX=              0.0000
 ZZZY=              0.0000 XXYY=            -63.2244 XXZZ=           -809.3480 YYZZ=           -809.3480
 XXYZ=              0.0000 YYXZ=              0.0000 ZZXY=              0.0000
 N-N= 7.668397860370D+01 E-N=-1.712421260008D+03  KE= 6.473015428786D+02
 Symmetry A1   KE= 5.523720785559D+02
 Symmetry A2   KE=-1.613756777464D-58
 Symmetry B1   KE= 4.746473216135D+01
 Symmetry B2   KE= 4.746473216135D+01
 No NMR shielding tensors so no spin-rotation constants.
 Leave Link  601 at Fri Sep 29 22:52:07 2023, MaxMem=  1610612736 cpu:               1.0 elap:               0.1
 (Enter /home/sekinelabo/g16/l701.exe)
 ... and contract with generalized density number  0.
 Compute integral first derivatives.
 Leave Link  701 at Fri Sep 29 22:52:07 2023, MaxMem=  1610612736 cpu:               1.3 elap:               0.1
 (Enter /home/sekinelabo/g16/l702.exe)
 L702 exits ... SP integral derivatives will be done elsewhere.
 Leave Link  702 at Fri Sep 29 22:52:07 2023, MaxMem=  1610612736 cpu:               0.4 elap:               0.0
 (Enter /home/sekinelabo/g16/l703.exe)
 Integral derivatives from FoFJK, PRISM(SPDF).
 Compute integral first derivatives, UseDBF=F ICtDFT=           0.
 Calling FoFJK, ICntrl=      2127 FMM=F ISym2X=1 I1Cent= 0 IOpClX= 0 NMat=1 NMatS=1 NMatT=0.
 FoFJK:  IHMeth= 1 ICntrl=    2127 DoSepK=F KAlg= 0 I1Cent=           0 FoldK=F
 IRaf=         0 NMat=       1 IRICut=       1 DoRegI=T DoRafI=F ISym2E= 1 IDoP0=0 IntGTp=1.
 FoFCou: FMM=F IPFlag=           0 FMFlag=      100000 FMFlg1=         800
         NFxFlg=           0 DoJE=F BraDBF=F KetDBF=F FulRan=T
         wScrn=  0.000000 ICntrl=      2127 IOpCl=  0 I1Cent=           0 NGrid=           0
         NMat0=    1 NMatS0=      1 NMatT0=    0 NMatD0=    1 NMtDS0=    0 NMtDT0=    0
 Petite list used in FoFCou.
 Leave Link  703 at Fri Sep 29 22:52:08 2023, MaxMem=  1610612736 cpu:               4.2 elap:               0.3
 (Enter /home/sekinelabo/g16/l716.exe)
 Dipole        = 0.00000000D+00 0.00000000D+00-8.03171753D-02
 ***** Axes restored to original set *****
 -------------------------------------------------------------------
 Center     Atomic                   Forces (Hartrees/Bohr)
 Number     Number              X              Y              Z
 -------------------------------------------------------------------
      1       11          -0.000000000   -0.000000000    0.006800450
      2       11          -0.000000000   -0.000000000   -0.005974088
      3       11          -0.000000000   -0.000000000   -0.005048694
      4       11          -0.000000000   -0.000000000    0.004222332
 -------------------------------------------------------------------
 Cartesian Forces:  Max     0.006800450 RMS     0.003230754
 Z-matrix is all fixed cartesians, so copy forces.
 Force constants in Cartesian coordinates: 
                1             2             3             4             5 
      1  0.100000D+01
      2  0.000000D+00  0.100000D+01
      3  0.000000D+00  0.000000D+00  0.100000D+01
      4  0.000000D+00  0.000000D+00  0.000000D+00  0.534074D-02
      5  0.000000D+00  0.000000D+00  0.000000D+00  0.000000D+00  0.534074D-02
      6  0.000000D+00  0.000000D+00  0.000000D+00  0.000000D+00  0.000000D+00
      7  0.000000D+00  0.000000D+00  0.000000D+00 -0.119450D-01  0.000000D+00
      8  0.000000D+00  0.000000D+00  0.000000D+00  0.000000D+00 -0.119450D-01
      9  0.000000D+00  0.000000D+00  0.000000D+00  0.000000D+00  0.000000D+00
     10  0.000000D+00  0.000000D+00  0.000000D+00  0.660423D-02  0.000000D+00
     11  0.000000D+00  0.000000D+00  0.000000D+00  0.000000D+00  0.660423D-02
     12  0.000000D+00  0.000000D+00  0.000000D+00  0.000000D+00  0.000000D+00
                6             7             8             9            10 
      6  0.159390D-01
      7  0.000000D+00  0.267158D-01
      8  0.000000D+00  0.000000D+00  0.267158D-01
      9 -0.159390D-01  0.000000D+00  0.000000D+00  0.576257D-01
     10  0.000000D+00 -0.147709D-01  0.000000D+00  0.000000D+00  0.816663D-02
     11  0.000000D+00  0.000000D+00 -0.147709D-01  0.000000D+00  0.000000D+00
     12  0.000000D+00  0.000000D+00  0.000000D+00 -0.416866D-01  0.000000D+00
               11            12 
     11  0.816663D-02
     12  0.000000D+00  0.416866D-01
 Leave Link  716 at Fri Sep 29 22:52:08 2023, MaxMem=  1610612736 cpu:               0.3 elap:               0.0
 (Enter /home/sekinelabo/g16/l103.exe)

 GradGradGradGradGradGradGradGradGradGradGradGradGradGradGradGradGradGrad
 Berny optimization.
 Search for a local minimum.
 Step number   1 out of a maximum of    2
 All quantities printed in internal units (Hartrees-Bohrs-Radians)
 Second derivative matrix not updated -- first step.
 The second derivative matrix:
                          X1        Y1        Z1        X2        Y2
           X1           1.00000
           Y1           0.00000   1.00000
           Z1           0.00000   0.00000   1.00000
           X2           0.00000   0.00000   0.00000   0.00534
           Y2           0.00000   0.00000   0.00000   0.00000   0.00534
           Z2           0.00000   0.00000   0.00000   0.00000   0.00000
           X3           0.00000   0.00000   0.00000  -0.01194   0.00000
           Y3           0.00000   0.00000   0.00000   0.00000  -0.01194
           Z3           0.00000   0.00000   0.00000   0.00000   0.00000
           X4           0.00000   0.00000   0.00000   0.00660   0.00000
           Y4           0.00000   0.00000   0.00000   0.00000   0.00660
           Z4           0.00000   0.00000   0.00000   0.00000   0.00000
                          Z2        X3        Y3        Z3        X4
           Z2           0.01594
           X3           0.00000   0.02672
           Y3           0.00000   0.00000   0.02672
           Z3          -0.01594   0.00000   0.00000   0.05763
           X4           0.00000  -0.01477   0.00000   0.00000   0.00817
           Y4           0.00000   0.00000  -0.01477   0.00000   0.00000
           Z4           0.00000   0.00000   0.00000  -0.04169   0.00000
                          Y4        Z4
           Y4           0.00817
           Z4           0.00000   0.04169
 ITU=  0
     Eigenvalues ---    0.02119   0.04022   0.04022   0.09406   0.23168
     Eigenvalues ---    0.23168   0.75000
 Angle between quadratic step and forces=  50.83 degrees.
 ClnCor:  largest displacement from symmetrization is 4.81D-17 for atom     3.
 Linear search not attempted -- first point.
 ClnCor:  largest displacement from symmetrization is 4.08D-16 for atom     1.
 B after Tr=     0.000000    0.000000    0.000000
         Rot=    1.000000    0.000000    0.000000    0.000000 Ang=   0.00 deg.
 Variable       Old X    -DE/DX   Delta X   Delta X   Delta X     New X
                                 (Linear)    (Quad)   (Total)
    X1        0.00000  -0.00000   0.00000  -0.00000   0.00000   0.00000
    Y1        0.00000  -0.00000   0.00000  -0.00000   0.00000   0.00000
    Z1        0.00000   0.00680   0.00000   0.00907   0.00907   0.00907
    X2        0.00000  -0.00000   0.00000  -0.00000   0.00000   0.00000
    Y2        0.00000  -0.00000   0.00000   0.00000   0.00000   0.00000
    Z2        8.73551  -0.00597   0.00000  -0.20997  -0.20997   8.52554
    X3        0.00000  -0.00000   0.00000   0.00000   0.00000   0.00000
    Y3        0.00000  -0.00000   0.00000   0.00000   0.00000   0.00000
    Z3       15.57729  -0.00505   0.00000   0.02262   0.02262  15.59991
    X4        0.00000  -0.00000   0.00000  -0.00000   0.00000   0.00000
    Y4        0.00000  -0.00000   0.00000  -0.00000   0.00000   0.00000
    Z4       21.11014   0.00422   0.00000   0.17828   0.17828  21.28843
         Item               Value     Threshold  Converged?
 Maximum Force            0.006800     0.000450     NO 
 RMS     Force            0.003231     0.000300     NO 
 Maximum Displacement     0.209971     0.001800     NO 
 RMS     Displacement     0.079826     0.001200     NO 
 Predicted change in Energy=-9.773131D-04
 GradGradGradGradGradGradGradGradGradGradGradGradGradGradGradGradGradGrad

 Leave Link  103 at Fri Sep 29 22:52:08 2023, MaxMem=  1610612736 cpu:               0.1 elap:               0.0
 (Enter /home/sekinelabo/g16/l9999.exe)
 1\1\GINC-SEKINELABO-XA7R-R37\Force\RB3LYP\6-311+G(d)\Na4\SEKINELABO\29
 -Sep-2023\0\\#p B3LYP/6-311+g(d) force\\\0,1\Na,0.,0.,0.\Na,0.,0.,4.62
 26347857\Na,0.,0.,8.2431491612\Na,0.,0.,11.1710059169\\Version=ES64L-G
 16RevB.01\State=1-SG\HF=-649.1865373\RMSD=1.517e-09\RMSF=3.231e-03\Dip
 ole=0.,0.,0.0803172\Quadrupole=-7.4587461,-7.4587461,14.9174922,0.,0.,
 0.\PG=C*V [C*(Na1Na1Na1Na1)]\\@


 THE REAL VOYAGE OF DISCOVERY CONSISTS NOT IN SEEKING NEW LANDSCAPES 
 BUT IN HAVING NEW EYES.
                                                    -- MARCEL PROUST
 Job cpu time:       0 days  0 hours  0 minutes 26.4 seconds.
 Elapsed time:       0 days  0 hours  0 minutes  1.7 seconds.
 File lengths (MBytes):  RWF=     11 Int=      0 D2E=      0 Chk=      2 Scr=      1
 Normal termination of Gaussian 16 at Fri Sep 29 22:52:08 2023.
 Initial command:
 /home/sekinelabo/g16/l1.exe "/home/sekinelabo/g16temp/Gau-90089.inp" -scrdir="/home/sekinelabo/g16temp/"
 Entering Link 1 = /home/sekinelabo/g16/l1.exe PID=     90576.
  
 Copyright (c) 1988-2017, Gaussian, Inc.  All Rights Reserved.
  
 This is part of the Gaussian(R) 16 program.  It is based on
 the Gaussian(R) 09 system (copyright 2009, Gaussian, Inc.),
 the Gaussian(R) 03 system (copyright 2003, Gaussian, Inc.),
 the Gaussian(R) 98 system (copyright 1998, Gaussian, Inc.),
 the Gaussian(R) 94 system (copyright 1995, Gaussian, Inc.),
 the Gaussian 92(TM) system (copyright 1992, Gaussian, Inc.),
 the Gaussian 90(TM) system (copyright 1990, Gaussian, Inc.),
 the Gaussian 88(TM) system (copyright 1988, Gaussian, Inc.),
 the Gaussian 86(TM) system (copyright 1986, Carnegie Mellon
 University), and the Gaussian 82(TM) system (copyright 1983,
 Carnegie Mellon University). Gaussian is a federally registered
 trademark of Gaussian, Inc.
  
 This software contains proprietary and confidential information,
 including trade secrets, belonging to Gaussian, Inc.
  
 This software is provided under written license and may be
 used, copied, transmitted, or stored only in accord with that
 written license.
  
 The following legend is applicable only to US Government
 contracts under FAR:
  
                    RESTRICTED RIGHTS LEGEND
  
 Use, reproduction and disclosure by the US Government is
 subject to restrictions as set forth in subparagraphs (a)
 and (c) of the Commercial Computer Software - Restricted
 Rights clause in FAR 52.227-19.
  
 Gaussian, Inc.
 340 Quinnipiac St., Bldg. 40, Wallingford CT 06492
  
  
 ---------------------------------------------------------------
 Warning -- This program may not be used in any manner that
 competes with the business of Gaussian, Inc. or will provide
 assistance to any competitor of Gaussian, Inc.  The licensee
 of this program is prohibited from giving any competitor of
 Gaussian, Inc. access to this program.  By using this program,
 the user acknowledges that Gaussian, Inc. is engaged in the
 business of creating and licensing software in the field of
 computational chemistry and represents and warrants to the
 licensee that it is not a competitor of Gaussian, Inc. and that
 it will not use this program in any manner prohibited above.
 ---------------------------------------------------------------
  

 Cite this work as:
 Gaussian 16, Revision B.01,
 M. J. Frisch, G. W. Trucks, H. B. Schlegel, G. E. Scuseria, 
 M. A. Robb, J. R. Cheeseman, G. Scalmani, V. Barone, 
 G. A. Petersson, H. Nakatsuji, X. Li, M. Caricato, A. V. Marenich, 
 J. Bloino, B. G. Janesko, R. Gomperts, B. Mennucci, H. P. Hratchian, 
 J. V. Ortiz, A. F. Izmaylov, J. L. Sonnenberg, D. Williams-Young, 
 F. Ding, F. Lipparini, F. Egidi, J. Goings, B. Peng, A. Petrone, 
 T. Henderson, D. Ranasinghe, V. G. Zakrzewski, J. Gao, N. Rega, 
 G. Zheng, W. Liang, M. Hada, M. Ehara, K. Toyota, R. Fukuda, 
 J. Hasegawa, M. Ishida, T. Nakajima, Y. Honda, O. Kitao, H. Nakai, 
 T. Vreven, K. Throssell, J. A. Montgomery, Jr., J. E. Peralta, 
 F. Ogliaro, M. J. Bearpark, J. J. Heyd, E. N. Brothers, K. N. Kudin, 
 V. N. Staroverov, T. A. Keith, R. Kobayashi, J. Normand, 
 K. Raghavachari, A. P. Rendell, J. C. Burant, S. S. Iyengar, 
 J. Tomasi, M. Cossi, J. M. Millam, M. Klene, C. Adamo, R. Cammi, 
 J. W. Ochterski, R. L. Martin, K. Morokuma, O. Farkas, 
 J. B. Foresman, and D. J. Fox, Gaussian, Inc., Wallingford CT, 2016.
 
 ******************************************
 Gaussian 16:  ES64L-G16RevB.01 20-Dec-2017
                29-Sep-2023 
 ******************************************
 %NProcShared=16
 Will use up to   16 processors via shared memory.
 %mem=12GB
 %Chk=checkpoint.chk
 -------------------------
 #p B3LYP/6-311+g(d) force
 -------------------------
 1/10=7,30=1,38=1/1,3;
 2/12=2,17=6,18=5,40=1/2;
 3/5=4,6=6,7=11,11=2,25=1,30=1,71=1,74=-5/1,2,3;
 4//1;
 5/5=2,38=5/2;
 6/7=2,8=2,9=2,10=2,28=1/1;
 7/29=1/1,2,3,16;
 1/10=7,30=1/3;
 99//99;
 Leave Link    1 at Fri Sep 29 22:52:08 2023, MaxMem=  1610612736 cpu:               0.2 elap:               0.0
 (Enter /home/sekinelabo/g16/l101.exe)


 Symbolic Z-matrix:
 Charge =  0 Multiplicity = 1
 Na                    0.        0.        0. 
[...]
 NSaved=11 IEnMin=11 EnMin= -649.176206821780     IErMin=11 ErrMin= 1.27D-05
 ErrMax= 1.27D-05  0.00D+00 EMaxC= 1.00D-01 BMatC= 8.10D-09 BMatP= 1.29D-06
 IDIUse=1 WtCom= 1.00D+00 WtEn= 0.00D+00
 Coeff-Com:  0.514D-03-0.704D-03 0.249D-03 0.460D-04 0.469D-02 0.421D-02
 Coeff-Com: -0.198D-02-0.184D-01-0.425D-03 0.141D+00 0.871D+00
 Coeff:      0.514D-03-0.704D-03 0.249D-03 0.460D-04 0.469D-02 0.421D-02
 Coeff:     -0.198D-02-0.184D-01-0.425D-03 0.141D+00 0.871D+00
 Gap=     0.030 Goal=   None    Shift=    0.000
 RMSDP=2.85D-05 MaxDP=1.47D-03 DE=-1.09D-05 OVMax= 6.19D-04

 Cycle  12  Pass 1  IDiag  1:
 E= -649.176206869666     Delta-E=       -0.000000047886 Rises=F Damp=F
 DIIS: error= 7.42D-06 at cycle  12 NSaved=  12.
 NSaved=12 IEnMin=12 EnMin= -649.176206869666     IErMin=12 ErrMin= 7.42D-06
 ErrMax= 7.42D-06  0.00D+00 EMaxC= 1.00D-01 BMatC= 1.83D-09 BMatP= 8.10D-09
 IDIUse=1 WtCom= 1.00D+00 WtEn= 0.00D+00
 Coeff-Com:  0.277D-04-0.351D-04-0.286D-04 0.591D-04 0.457D-03 0.776D-03
 Coeff-Com: -0.670D-03-0.252D-02-0.425D-03-0.299D-01 0.386D-01 0.994D+00
 Coeff:      0.277D-04-0.351D-04-0.286D-04 0.591D-04 0.457D-03 0.776D-03
 Coeff:     -0.670D-03-0.252D-02-0.425D-03-0.299D-01 0.386D-01 0.994D+00
 Gap=     0.030 Goal=   None    Shift=    0.000
 RMSDP=1.23D-05 MaxDP=4.68D-04 DE=-4.79D-08 OVMax= 2.60D-04

 Cycle  13  Pass 1  IDiag  1:
 E= -649.176206885211     Delta-E=       -0.000000015545 Rises=F Damp=F
 DIIS: error= 1.86D-06 at cycle  13 NSaved=  13.
 NSaved=13 IEnMin=13 EnMin= -649.176206885211     IErMin=13 ErrMin= 1.86D-06
 ErrMax= 1.86D-06  0.00D+00 EMaxC= 1.00D-01 BMatC= 1.03D-10 BMatP= 1.83D-09
 IDIUse=1 WtCom= 1.00D+00 WtEn= 0.00D+00
 Coeff-Com:  0.268D-04-0.360D-04-0.257D-05-0.147D-04 0.116D-03 0.855D-04
 Coeff-Com: -0.304D-03 0.226D-02-0.379D-03-0.174D-01-0.485D-01 0.345D+00
 Coeff-Com:  0.719D+00
 Coeff:      0.268D-04-0.360D-04-0.257D-05-0.147D-04 0.116D-03 0.855D-04
 Coeff:     -0.304D-03 0.226D-02-0.379D-03-0.174D-01-0.485D-01 0.345D+00
 Coeff:      0.719D+00
 Gap=     0.030 Goal=   None    Shift=    0.000
 RMSDP=2.32D-06 MaxDP=1.21D-04 DE=-1.55D-08 OVMax= 5.16D-05

 Cycle  14  Pass 1  IDiag  1:
 E= -649.176206886040     Delta-E=       -0.000000000829 Rises=F Damp=F
 DIIS: error= 2.21D-07 at cycle  14 NSaved=  14.
 NSaved=14 IEnMin=14 EnMin= -649.176206886040     IErMin=14 ErrMin= 2.21D-07
 ErrMax= 2.21D-07  0.00D+00 EMaxC= 1.00D-01 BMatC= 2.09D-12 BMatP= 1.03D-10
 IDIUse=1 WtCom= 1.00D+00 WtEn= 0.00D+00
 Coeff-Com: -0.764D-06 0.921D-06 0.608D-06 0.164D-05-0.564D-05-0.902D-04
 Coeff-Com: -0.156D-03 0.102D-03-0.171D-03 0.215D-02-0.698D-02-0.301D-01
 Coeff-Com:  0.107D+00 0.928D+00
 Coeff:     -0.764D-06 0.921D-06 0.608D-06 0.164D-05-0.564D-05-0.902D-04
 Coeff:     -0.156D-03 0.102D-03-0.171D-03 0.215D-02-0.698D-02-0.301D-01
 Coeff:      0.107D+00 0.928D+00
 Gap=     0.030 Goal=   None    Shift=    0.000
 RMSDP=2.97D-07 MaxDP=1.05D-05 DE=-8.29D-10 OVMax= 7.00D-06

 Cycle  15  Pass 1  IDiag  1:
 E= -649.176206886059     Delta-E=       -0.000000000019 Rises=F Damp=F
 DIIS: error= 1.10D-08 at cycle  15 NSaved=  15.
 NSaved=15 IEnMin=15 EnMin= -649.176206886059     IErMin=15 ErrMin= 1.10D-08
 ErrMax= 1.10D-08  0.00D+00 EMaxC= 1.00D-01 BMatC= 5.53D-15 BMatP= 2.09D-12
 IDIUse=1 WtCom= 1.00D+00 WtEn= 0.00D+00
 Coeff-Com: -0.852D-07 0.102D-06 0.198D-06-0.371D-06-0.113D-05-0.521D-05
 Coeff-Com:  0.262D-04-0.311D-04 0.413D-06 0.134D-03 0.732D-03-0.372D-02
 Coeff-Com: -0.142D-01 0.941D-02 0.101D+01
 Coeff:     -0.852D-07 0.102D-06 0.198D-06-0.371D-06-0.113D-05-0.521D-05
 Coeff:      0.262D-04-0.311D-04 0.413D-06 0.134D-03 0.732D-03-0.372D-02
 Coeff:     -0.142D-01 0.941D-02 0.101D+01
 Gap=     0.030 Goal=   None    Shift=    0.000
 RMSDP=2.91D-08 MaxDP=1.17D-06 DE=-1.88D-11 OVMax= 5.24D-07

 Cycle  16  Pass 1  IDiag  1:
 E= -649.176206886059     Delta-E=        0.000000000000 Rises=F Damp=F
 DIIS: error= 1.34D-08 at cycle  16 NSaved=  16.
 NSaved=16 IEnMin=15 EnMin= -649.176206886059     IErMin=15 ErrMin= 1.10D-08
 ErrMax= 1.34D-08  0.00D+00 EMaxC= 1.00D-01 BMatC= 4.27D-15 BMatP= 5.53D-15
 IDIUse=1 WtCom= 1.00D+00 WtEn= 0.00D+00
 Large coefficients: NSaved= 16 BigCof=    0.00 CofMax=   10.00 Det=-8.67D-16
 Inversion failed.  Reducing to 15 matrices.
 Coeff-Com: -0.159D-06 0.214D-06-0.112D-07-0.137D-05-0.177D-05 0.555D-05
 Coeff-Com: -0.102D-04-0.250D-05 0.212D-04 0.185D-03-0.111D-02-0.378D-02
 Coeff-Com: -0.170D-02 0.300D+00 0.707D+00
 Coeff:     -0.159D-06 0.214D-06-0.112D-07-0.137D-05-0.177D-05 0.555D-05
 Coeff:     -0.102D-04-0.250D-05 0.212D-04 0.185D-03-0.111D-02-0.378D-02
 Coeff:     -0.170D-02 0.300D+00 0.707D+00
 Gap=     0.030 Goal=   None    Shift=    0.000
 RMSDP=1.11D-08 MaxDP=4.29D-07 DE= 2.27D-13 OVMax= 3.71D-07

 Cycle  17  Pass 1  IDiag  1:
 E= -649.176206886057     Delta-E=        0.000000000002 Rises=F Damp=F
 DIIS: error= 1.23D-09 at cycle  17 NSaved=  16.
 NSaved=16 IEnMin=14 EnMin= -649.176206886059     IErMin=16 ErrMin= 1.23D-09
 ErrMax= 1.23D-09  0.00D+00 EMaxC= 1.00D-01 BMatC= 3.02D-17 BMatP= 4.27D-15
 IDIUse=1 WtCom= 1.00D+00 WtEn= 0.00D+00
 Large coefficients: NSaved= 16 BigCof=    0.00 CofMax=   10.00 Det=-1.76D-16
 Inversion failed.  Reducing to 15 matrices.
 Coeff-Com: -0.226D-08 0.276D-08 0.174D-08 0.614D-06-0.996D-06 0.105D-05
 Coeff-Com:  0.120D-05-0.376D-05 0.760D-05-0.397D-04 0.911D-03-0.433D-03
 Coeff-Com: -0.565D-01 0.142D+00 0.914D+00
 Coeff:     -0.226D-08 0.276D-08 0.174D-08 0.614D-06-0.996D-06 0.105D-05
 Coeff:      0.120D-05-0.376D-05 0.760D-05-0.397D-04 0.911D-03-0.433D-03
 Coeff:     -0.565D-01 0.142D+00 0.914D+00
 Gap=     0.030 Goal=   None    Shift=    0.000
 RMSDP=2.57D-09 MaxDP=8.71D-08 DE= 1.59D-12 OVMax= 2.52D-08

 SCF Done:  E(RB3LYP) =  -649.176206886     A.U. after   17 cycles
            NFock= 17  Conv=0.26D-08     -V/T= 2.0028
 KE= 6.473392894906D+02 PE=-1.714767473363D+03 EE= 3.403439616140D+02
 Leave Link  502 at Fri Sep 29 22:52:21 2023, MaxMem=  1610612736 cpu:              13.7 elap:               0.9
 (Enter /home/sekinelabo/g16/l601.exe)
 Copying SCF densities to generalized density rwf, IOpCl= 0 IROHF=0.

 **********************************************************************

            Population analysis using the SCF Density.

 **********************************************************************

 Orbital symmetries:
       Occupied  (SG) (SG) (SG) (SG) (SG) (SG) (SG) (SG) (PI) (PI)
                 (SG) (PI) (PI) (SG) (SG) (PI) (PI) (SG) (PI) (PI)
                 (SG) (SG)
       Virtual   (SG) (SG) (PI) (PI) (PI) (PI) (SG) (PI) (PI) (SG)
                 (SG) (SG) (PI) (PI) (SG) (PI) (PI) (SG) (PI) (PI)
                 (SG) (PI) (PI) (PI) (PI) (SG) (SG) (SG) (SG) (SG)
                 (PI) (PI) (SG) (PI) (PI) (PI) (PI) (SG) (PI) (PI)
                 (SG) (SG) (SG) (SG) (SG) (PI) (PI) (DLTA) (DLTA)
                 (SG) (DLTA) (DLTA) (PI) (PI) (DLTA) (DLTA) (SG)
                 (PI) (PI) (DLTA) (DLTA) (SG) (PI) (PI) (PI) (PI)
                 (PI) (PI) (PI) (PI) (SG) (SG) (SG) (PI) (PI) (SG)
                 (SG) (SG) (SG) (SG) (SG) (PI) (PI) (PI) (PI) (SG)
                 (PI) (PI) (SG) (PI) (PI) (SG) (SG) (SG) (SG) (SG)
                 (SG)
 The electronic state is 1-SG.
 Alpha  occ. eigenvalues --  -38.46434 -38.45692 -38.45308 -38.44291  -2.22107
 Alpha  occ. eigenvalues --   -2.21397  -2.21160  -2.20169  -1.15783  -1.15783
 Alpha  occ. eigenvalues --   -1.15745  -1.15079  -1.15079  -1.15056  -1.15022
 Alpha  occ. eigenvalues --   -1.14767  -1.14767  -1.13810  -1.13788  -1.13788
 Alpha  occ. eigenvalues --   -0.14634  -0.11701
 Alpha virt. eigenvalues --   -0.08695  -0.04353  -0.03190  -0.03190  -0.01897
 Alpha virt. eigenvalues --   -0.01897  -0.01553  -0.00366  -0.00366   0.00023
 Alpha virt. eigenvalues --    0.00180   0.01078   0.01101   0.01101   0.01180
 Alpha virt. eigenvalues --    0.01428   0.01428   0.02187   0.02312   0.02312
 Alpha virt. eigenvalues --    0.02458   0.02627   0.02627   0.03908   0.03908
 Alpha virt. eigenvalues --    0.03991   0.04638   0.05360   0.05593   0.07116
 Alpha virt. eigenvalues --    0.07295   0.07295   0.07483   0.07967   0.07967
 Alpha virt. eigenvalues --    0.08805   0.08805   0.09756   0.10785   0.10785
 Alpha virt. eigenvalues --    0.11688   0.12128   0.15204   0.15676   0.19422
 Alpha virt. eigenvalues --    0.28107   0.28107   0.30914   0.30914   0.32299
 Alpha virt. eigenvalues --    0.34174   0.34174   0.34464   0.34464   0.34721
 Alpha virt. eigenvalues --    0.34721   0.36647   0.37248   0.37248   0.39281
 Alpha virt. eigenvalues --    0.39281   0.39534   0.42152   0.42152   0.42754
 Alpha virt. eigenvalues --    0.42754   0.44002   0.44002   0.44528   0.44528
 Alpha virt. eigenvalues --    0.44685   0.46675   0.50401   0.55179   0.55179
 Alpha virt. eigenvalues --    0.55863   0.87990   2.01115   2.02494   2.10116
 Alpha virt. eigenvalues --    2.15829   4.42276   4.42276   4.42558   4.42558
 Alpha virt. eigenvalues --    4.43675   4.43885   4.43885   4.45363   4.47519
 Alpha virt. eigenvalues --    4.47519   4.49652   4.79855  96.20248  96.21923
 Alpha virt. eigenvalues --   96.32935  96.37925
          Condensed to atoms (all electrons):
               1          2          3          4
     1  Na  10.608613  -0.099332   0.235446   0.002898
     2  Na  -0.099332  12.130240  -0.441918   0.015415
     3  Na   0.235446  -0.441918  10.827400   0.128751
     4  Na   0.002898   0.015415   0.128751  10.751228
 Mulliken charges:
               1
     1  Na   0.252375
     2  Na  -0.604404
     3  Na   0.250320
     4  Na   0.101709
 Sum of Mulliken charges =   0.00000
 Mulliken charges with hydrogens summed into heavy atoms:
               1
     1  Na   0.252375
     2  Na  -0.604404
     3  Na   0.250320
     4  Na   0.101709
 Electronic spatial extent (au):  <R**2>=           2914.9609
 Charge=              0.0000 electrons
 Dipole moment (field-independent basis, Debye):
    X=              0.0000    Y=              0.0000    Z=             -0.2853  Tot=              0.2853
 Quadrupole moment (field-independent basis, Debye-Ang):
   XX=            -44.8241   YY=            -44.8241   ZZ=            -17.2606
   XY=              0.0000   XZ=              0.0000   YZ=              0.0000
 Traceless Quadrupole moment (field-independent basis, Debye-Ang):
   XX=             -9.1878   YY=             -9.1878   ZZ=             18.3757
   XY=              0.0000   XZ=              0.0000   YZ=              0.0000
 Octapole moment (field-independent basis, Debye-Ang**2):
  XXX=              0.0000  YYY=              0.0000  ZZZ=             12.8288  XYY=              0.0000
  XXY=              0.0000  XXZ=             -7.2974  XZZ=              0.0000  YZZ=              0.0000
  YYZ=             -7.2974  XYZ=              0.0000
 Hexadecapole moment (field-independent basis, Debye-Ang**3):
 XXXX=           -190.4584 YYYY=           -190.4584 ZZZZ=          -2939.7133 XXXY=              0.0000
 XXXZ=              0.0000 YYYX=              0.0000 YYYZ=              0.0000 ZZZX=              0.0000
 ZZZY=              0.0000 XXYY=            -63.4861 XXZZ=           -847.0759 YYZZ=           -847.0759
 XXYZ=              0.0000 YYXZ=              0.0000 ZZXY=              0.0000
 N-N= 7.790801537199D+01 E-N=-1.714767473312D+03  KE= 6.473392894906D+02
 Symmetry A1   KE= 5.524144305001D+02
 Symmetry A2   KE=-9.687441998646D-53
 Symmetry B1   KE= 4.746242949526D+01
 Symmetry B2   KE= 4.746242949526D+01
 No NMR shielding tensors so no spin-rotation constants.
 Leave Link  601 at Fri Sep 29 22:52:21 2023, MaxMem=  1610612736 cpu:               1.0 elap:               0.1
 (Enter /home/sekinelabo/g16/l701.exe)
 ... and contract with generalized density number  0.
 Compute integral first derivatives.
 Leave Link  701 at Fri Sep 29 22:52:22 2023, MaxMem=  1610612736 cpu:               1.3 elap:               0.1
 (Enter /home/sekinelabo/g16/l702.exe)
 L702 exits ... SP integral derivatives will be done elsewhere.
 Leave Link  702 at Fri Sep 29 22:52:22 2023, MaxMem=  1610612736 cpu:               0.3 elap:               0.0
 (Enter /home/sekinelabo/g16/l703.exe)
 Integral derivatives from FoFJK, PRISM(SPDF).
 Compute integral first derivatives, UseDBF=F ICtDFT=           0.
 Calling FoFJK, ICntrl=      2127 FMM=F ISym2X=1 I1Cent= 0 IOpClX= 0 NMat=1 NMatS=1 NMatT=0.
 FoFJK:  IHMeth= 1 ICntrl=    2127 DoSepK=F KAlg= 0 I1Cent=           0 FoldK=F
 IRaf=         0 NMat=       1 IRICut=       1 DoRegI=T DoRafI=F ISym2E= 1 IDoP0=0 IntGTp=1.
 FoFCou: FMM=F IPFlag=           0 FMFlag=      100000 FMFlg1=         800
         NFxFlg=           0 DoJE=F BraDBF=F KetDBF=F FulRan=T
         wScrn=  0.000000 ICntrl=      2127 IOpCl=  0 I1Cent=           0 NGrid=           0
         NMat0=    1 NMatS0=      1 NMatT0=    0 NMatD0=    1 NMtDS0=    0 NMtDT0=    0
 Petite list used in FoFCou.
 Leave Link  703 at Fri Sep 29 22:52:22 2023, MaxMem=  1610612736 cpu:               4.2 elap:               0.3
 (Enter /home/sekinelabo/g16/l716.exe)
 Dipole        = 0.00000000D+00 0.00000000D+00-1.12250439D-01
 ***** Axes restored to original set *****
 -------------------------------------------------------------------
 Center     Atomic                   Forces (Hartrees/Bohr)
 Number     Number              X              Y              Z
 -------------------------------------------------------------------
      1       11          -0.000000000   -0.000000000   -0.013742800
      2       11          -0.000000000   -0.000000000    0.014501499
      3       11          -0.000000000   -0.000000000    0.005067941
      4       11          -0.000000000   -0.000000000   -0.005826640
 -------------------------------------------------------------------
 Cartesian Forces:  Max     0.014501499 RMS     0.006183255
 Z-matrix is all fixed cartesians, so copy forces.
 Force constants in Cartesian coordinates: 
                1             2             3             4             5 
      1  0.100263D-01
      2  0.000000D+00  0.100263D-01
      3  0.000000D+00  0.000000D+00  0.692596D-01
      4 -0.174052D-01  0.000000D+00  0.000000D+00  0.302146D-01
      5  0.000000D+00 -0.174052D-01  0.000000D+00  0.000000D+00  0.302146D-01
      6  0.000000D+00  0.000000D+00 -0.692596D-01  0.000000D+00  0.000000D+00
      7  0.737889D-02  0.000000D+00  0.000000D+00 -0.128094D-01  0.000000D+00
      8  0.000000D+00  0.737889D-02  0.000000D+00  0.000000D+00 -0.128094D-01
      9  0.000000D+00  0.000000D+00  0.000000D+00  0.000000D+00  0.000000D+00
     10  0.000000D+00  0.000000D+00  0.000000D+00  0.000000D+00  0.000000D+00
     11  0.000000D+00  0.000000D+00  0.000000D+00  0.000000D+00  0.000000D+00
     12  0.000000D+00  0.000000D+00  0.000000D+00  0.000000D+00  0.000000D+00
                6             7             8             9            10 
      6  0.857812D-01
      7  0.000000D+00  0.543051D-02
      8  0.000000D+00  0.000000D+00  0.543051D-02
      9 -0.165216D-01  0.000000D+00  0.000000D+00  0.165216D-01
     10  0.000000D+00  0.000000D+00  0.000000D+00  0.000000D+00  0.100000D+01
     11  0.000000D+00  0.000000D+00  0.000000D+00  0.000000D+00  0.000000D+00
     12  0.000000D+00  0.000000D+00  0.000000D+00  0.000000D+00  0.000000D+00
               11            12 
     11  0.100000D+01
     12  0.000000D+00  0.100000D+01
 Leave Link  716 at Fri Sep 29 22:52:22 2023, MaxMem=  1610612736 cpu:               0.3 elap:               0.0
 (Enter /home/sekinelabo/g16/l103.exe)

 GradGradGradGradGradGradGradGradGradGradGradGradGradGradGradGradGradGrad
 Berny optimization.
 Search for a local minimum.
 Step number   1 out of a maximum of    2
 All quantities printed in internal units (Hartrees-Bohrs-Radians)
 Second derivative matrix not updated -- first step.
 The second derivative matrix:
                          X1        Y1        Z1        X2        Y2
           X1           0.01003
           Y1           0.00000   0.01003
           Z1           0.00000   0.00000   0.06926
           X2          -0.01741   0.00000   0.00000   0.03021
           Y2           0.00000  -0.01741   0.00000   0.00000   0.03021
           Z2           0.00000   0.00000  -0.06926   0.00000   0.00000
           X3           0.00738   0.00000   0.00000  -0.01281   0.00000
           Y3           0.00000   0.00738   0.00000   0.00000  -0.01281
           Z3           0.00000   0.00000   0.00000   0.00000   0.00000
           X4           0.00000   0.00000   0.00000   0.00000   0.00000
           Y4           0.00000   0.00000   0.00000   0.00000   0.00000
           Z4           0.00000   0.00000   0.00000   0.00000   0.00000
                          Z2        X3        Y3        Z3        X4
           Z2           0.08578
           X3           0.00000   0.00543
           Y3           0.00000   0.00000   0.00543
           Z3          -0.01652   0.00000   0.00000   0.01652
           X4           0.00000   0.00000   0.00000   0.00000   1.00000
           Y4           0.00000   0.00000   0.00000   0.00000   0.00000
           Z4           0.00000   0.00000   0.00000   0.00000   0.00000
                          Y4        Z4
           Y4           1.00000
           Z4           0.00000   1.00000
 ITU=  0
     Eigenvalues ---    0.02313   0.04567   0.04567   0.14844   0.20338
     Eigenvalues ---    0.20338   0.75000
 Angle between quadratic step and forces=  48.20 degrees.
 ClnCor:  largest displacement from symmetrization is 4.09D-16 for atom     2.
 Linear search not attempted -- first point.
 ClnCor:  largest displacement from symmetrization is 8.88D-16 for atom     1.
 B after Tr=     0.000000    0.000000   -0.000000
         Rot=    1.000000    0.000000    0.000000    0.000000 Ang=   0.00 deg.
 Variable       Old X    -DE/DX   Delta X   Delta X   Delta X     New X
                                 (Linear)    (Quad)   (Total)
    X1        0.00000  -0.00000   0.00000   0.00000   0.00000   0.00000
    Y1        0.00000  -0.00000   0.00000   0.00000   0.00000   0.00000
    Z1        0.00000  -0.01374   0.00000  -0.21145  -0.21145  -0.21145
    X2        0.00000  -0.00000   0.00000  -0.00000   0.00000   0.00000
    Y2        0.00000  -0.00000   0.00000   0.00000   0.00000   0.00000
    Z2        4.99343   0.01450   0.00000   0.01502   0.01502   5.00845
    X3        0.00000  -0.00000   0.00000   0.00000   0.00000   0.00000
    Y3        0.00000  -0.00000   0.00000   0.00000   0.00000   0.00000
    Z3       11.77843   0.00507   0.00000   0.20421   0.20421  11.98263
    X4        0.00000  -0.00000   0.00000  -0.00000   0.00000   0.00000
    Y4        0.00000  -0.00000   0.00000   0.00000   0.00000   0.00000
    Z4       21.41760  -0.00583   0.00000  -0.00777  -0.00777  21.40983
         Item               Value     Threshold  Converged?
 Maximum Force            0.014501     0.000450     NO 
 RMS     Force            0.006183     0.000300     NO 
 Maximum Displacement     0.211452     0.001800     NO 
 RMS     Displacement     0.084999     0.001200     NO 
 Predicted change in Energy=-2.101926D-03
 GradGradGradGradGradGradGradGradGradGradGradGradGradGradGradGradGradGrad

 Leave Link  103 at Fri Sep 29 22:52:22 2023, MaxMem=  1610612736 cpu:               0.1 elap:               0.0
 (Enter /home/sekinelabo/g16/l9999.exe)
 1\1\GINC-SEKINELABO-XA7R-R37\Force\RB3LYP\6-311+G(d)\Na4\SEKINELABO\29
 -Sep-2023\0\\#p B3LYP/6-311+g(d) force\\\0,1\Na,0.,0.,0.\Na,0.,0.,2.64
 24095348\Na,0.,0.,6.2328756443\Na,0.,0.,11.3337057819\\Version=ES64L-G
 16RevB.01\State=1-SG\HF=-649.1762069\RMSD=2.570e-09\RMSF=6.183e-03\Dip
 ole=0.,0.,-0.1122504\Quadrupole=-6.8309341,-6.8309341,13.6618682,0.,0.
 ,0.\PG=C*V [C*(Na1Na1Na1Na1)]\\@


 COLLEGE PROFESSOR: SOMEONE WHO TALKS IN OTHER PEOPLE'S SLEEP.
 Job cpu time:       0 days  0 hours  0 minutes 26.8 seconds.
 Elapsed time:       0 days  0 hours  0 minutes  1.8 seconds.
 File lengths (MBytes):  RWF=     11 Int=      0 D2E=      0 Chk=      2 Scr=      1
 Normal termination of Gaussian 16 at Fri Sep 29 22:52:22 2023.
