
7 atoms
1 atom types
   0.0000000000    30.0000000000 xlo xhi
   0.0000000000    30.0000000000 ylo yhi
   0.0000000000    30.0000000000 zlo zhi
   0.0000000000    0.0000000000    0.0000000000 xy xz yz

Atoms # atomic

     1      1    9.5278130000    0.0000000000    1.9284020000
     2      1   11.2698910000    2.1932670000    0.8577270000
     3      1    9.2812530000    4.3974890000    0.4143490000
     4      1    7.0532840000    4.5082370000    2.4227710000
     5      1    4.7742510000    2.7310510000    1.6316740000
     6      1    2.4025010000    1.8857890000    0.0000000000
     7      1    0.0000000000    2.4361270000    1.7127590000
