ITEM: TIMESTEP
0
ITEM: NUMBER OF ATOMS
7
ITEM: BOX BOUNDS xy xz yz pp pp pp
0.0000000000000000e+00 3.0000000000000000e+01 0.0000000000000000e+00
0.0000000000000000e+00 3.0000000000000000e+01 0.0000000000000000e+00
0.0000000000000000e+00 3.0000000000000000e+01 0.0000000000000000e+00
ITEM: ATOMS id type x y z fx fy fz
6 1 2.4025 1.88579 0 -0.0960821 -0.112728 -0.288323
7 1 0 2.43613 1.71276 -0.105355 0.036077 0.108071
5 1 4.77425 2.73105 1.63167 0.0353792 -0.0858791 0.098803
1 1 9.52781 0 1.9284 -0.127993 -0.133151 0.0699307
2 1 11.2699 2.19327 0.857727 0.347547 -0.0951413 -0.024477
4 1 7.05328 4.50824 2.42277 -0.0299493 0.189922 0.295017
3 1 9.28125 4.39749 0.414349 -0.0235476 0.200899 -0.259022
