ITEM: TIMESTEP
110
ITEM: NUMBER OF ATOMS
7
ITEM: BOX BOUNDS xy xz yz pp pp pp
0.0000000000000000e+00 3.0000000000000000e+01 0.0000000000000000e+00
0.0000000000000000e+00 3.0000000000000000e+01 0.0000000000000000e+00
0.0000000000000000e+00 3.0000000000000000e+01 0.0000000000000000e+00
ITEM: ATOMS id type x y z fx fy fz
6 1 2.63844 1.57296 29.8826 -0.030073 -0.0245124 -0.033366
7 1 29.7688 3.028 1.02706 -0.0436429 0.0125863 0.00308512
5 1 5.11381 2.06081 1.56446 -0.0528516 -0.388996 -0.0827915
1 1 9.70859 29.3841 1.80078 -0.00558573 0.0631962 -0.0332183
2 1 11.2589 2.06465 0.810567 -0.431001 0.51804 0.147501
4 1 6.50847 5.01027 2.48959 0.0731398 0.375643 0.154696
3 1 9.31204 5.0312 1.39261 0.490014 -0.555957 -0.155906
