ITEM: TIMESTEP
130
ITEM: NUMBER OF ATOMS
7
ITEM: BOX BOUNDS xy xz yz pp pp pp
0.0000000000000000e+00 3.0000000000000000e+01 0.0000000000000000e+00
0.0000000000000000e+00 3.0000000000000000e+01 0.0000000000000000e+00
0.0000000000000000e+00 3.0000000000000000e+01 0.0000000000000000e+00
ITEM: ATOMS id type x y z fx fy fz
6 1 2.65293 1.52938 29.8693 -0.22287 0.155425 0.152323
7 1 29.7063 3.11719 0.920106 0.219631 -0.140099 -0.112856
5 1 5.20351 1.79716 1.57202 0.345992 0.77435 0.18288
1 1 9.6983 29.3981 1.74419 -0.0598848 -0.0337658 -0.00214647
2 1 11.1602 2.08871 0.83462 0.052477 -0.0816822 -0.017136
4 1 6.33313 5.18743 2.51352 -0.108405 -0.808543 -0.26752
3 1 9.55464 5.03397 1.51389 -0.226941 0.134315 0.064455
