ITEM: TIMESTEP
160
ITEM: NUMBER OF ATOMS
7
ITEM: BOX BOUNDS xy xz yz pp pp pp
0.0000000000000000e+00 3.0000000000000000e+01 0.0000000000000000e+00
0.0000000000000000e+00 3.0000000000000000e+01 0.0000000000000000e+00
0.0000000000000000e+00 3.0000000000000000e+01 0.0000000000000000e+00
ITEM: ATOMS id type x y z fx fy fz
6 1 2.45888 1.58119 29.951 0.692323 0.176993 0.484965
7 1 29.802 3.12938 0.674127 0.0981812 -0.0588202 -0.0282706
5 1 5.63107 2.014 1.74663 -0.823375 -0.48014 -0.526139
1 1 9.59195 29.3721 1.66932 -0.05033 -0.0554912 0.0157819
2 1 10.9993 2.24533 0.872118 0.138479 -0.170513 -0.0828928
4 1 6.23254 4.81015 2.28723 -0.131467 0.339556 0.0952606
3 1 9.59323 4.99987 1.76727 0.0761885 0.248415 0.0412946
