ITEM: TIMESTEP
170
ITEM: NUMBER OF ATOMS
7
ITEM: BOX BOUNDS xy xz yz pp pp pp
0.0000000000000000e+00 3.0000000000000000e+01 0.0000000000000000e+00
0.0000000000000000e+00 3.0000000000000000e+01 0.0000000000000000e+00
0.0000000000000000e+00 3.0000000000000000e+01 0.0000000000000000e+00
ITEM: ATOMS id type x y z fx fy fz
6 1 2.51436 1.6336 30.0709 0.068605 0.0955712 0.136532
7 1 29.8602 3.11532 0.588202 0.100115 -0.0684113 -0.0315513
5 1 5.61563 2.01182 1.7075 -0.258345 -0.557325 -0.208813
1 1 9.53335 29.3413 1.65348 0.0134448 0.0706956 -0.0212349
2 1 11.0021 2.2557 0.857083 0.0217719 -0.219126 -0.0248052
4 1 6.26014 4.73414 2.21221 -0.163776 0.481899 0.12748
3 1 9.52317 5.06011 1.87827 0.218185 0.196696 0.0223926
