ITEM: TIMESTEP
210
ITEM: NUMBER OF ATOMS
7
ITEM: BOX BOUNDS xy xz yz pp pp pp
0.0000000000000000e+00 3.0000000000000000e+01 0.0000000000000000e+00
0.0000000000000000e+00 3.0000000000000000e+01 0.0000000000000000e+00
0.0000000000000000e+00 3.0000000000000000e+01 0.0000000000000000e+00
ITEM: ATOMS id type x y z fx fy fz
6 1 2.52674 1.789 0.386801 0.62787 -0.167816 0.15655
7 1 29.927 3.12222 0.272025 -0.275414 0.128301 -0.0195552
5 1 5.82445 1.49124 1.608 -0.390043 0.615641 -0.0588435
1 1 9.41421 29.4319 1.5375 -0.00742265 -0.0244145 0.00560558
2 1 10.8238 2.25425 0.943014 0.125242 -0.0635016 -0.0537169
4 1 6.14248 4.91689 2.05695 0.456616 -0.549256 -0.0540377
3 1 9.65029 5.14643 2.16339 -0.536848 0.0610468 0.023998
