ITEM: TIMESTEP
220
ITEM: NUMBER OF ATOMS
7
ITEM: BOX BOUNDS xy xz yz pp pp pp
0.0000000000000000e+00 3.0000000000000000e+01 0.0000000000000000e+00
0.0000000000000000e+00 3.0000000000000000e+01 0.0000000000000000e+00
0.0000000000000000e+00 3.0000000000000000e+01 0.0000000000000000e+00
ITEM: ATOMS id type x y z fx fy fz
6 1 2.59817 1.76949 0.438683 0.122692 0.0777601 0.109801
7 1 29.828 3.17808 0.200514 0.21838 -0.121395 0.0138317
5 1 5.90435 1.45237 1.61672 -0.430664 0.600859 -0.0427922
1 1 9.41182 29.4777 1.50286 -0.115755 -0.117068 0.0261659
2 1 10.76 2.27125 0.989609 0.286376 -0.0390774 -0.130102
4 1 6.17904 4.89215 2.01868 0.230009 -0.622052 -0.0555721
3 1 9.62767 5.11096 2.20061 -0.311038 0.220973 0.0786683
