ITEM: TIMESTEP
230
ITEM: NUMBER OF ATOMS
7
ITEM: BOX BOUNDS xy xz yz pp pp pp
0.0000000000000000e+00 3.0000000000000000e+01 0.0000000000000000e+00
0.0000000000000000e+00 3.0000000000000000e+01 0.0000000000000000e+00
0.0000000000000000e+00 3.0000000000000000e+01 0.0000000000000000e+00
ITEM: ATOMS id type x y z fx fy fz
6 1 2.70002 1.75353 0.505133 -0.17796 0.0368359 -0.0628144
7 1 29.7469 3.22291 0.132626 -0.0122897 -0.00108091 -0.00380661
5 1 5.92012 1.50482 1.6202 0.125942 0.00346829 0.0980243
1 1 9.39217 29.5041 1.47363 -0.116242 -0.0917305 0.018816
2 1 10.7432 2.27948 1.0137 0.274464 -0.10013 -0.140571
4 1 6.25034 4.77505 1.97333 -0.109842 -0.132019 -0.0293093
3 1 9.55617 5.11206 2.24906 0.0159278 0.284656 0.119661
