ITEM: TIMESTEP
250
ITEM: NUMBER OF ATOMS
7
ITEM: BOX BOUNDS xy xz yz pp pp pp
0.0000000000000000e+00 3.0000000000000000e+01 0.0000000000000000e+00
0.0000000000000000e+00 3.0000000000000000e+01 0.0000000000000000e+00
0.0000000000000000e+00 3.0000000000000000e+01 0.0000000000000000e+00
ITEM: ATOMS id type x y z fx fy fz
6 1 2.78251 1.76417 0.601725 -0.666418 0.269391 -0.14859
7 1 29.6361 3.28252 0.00965114 0.49659 -0.253127 0.090886
5 1 5.98493 1.55512 1.66097 0.15857 -0.402771 0.0425407
1 1 9.29961 29.515 1.42608 -0.132525 0.076092 0.00455166
2 1 10.8302 2.26956 1.00522 -0.0520211 0.355308 0.148588
4 1 6.32583 4.54073 1.87594 -0.153224 0.252095 -0.00517806
3 1 9.44986 5.22481 2.38809 0.349028 -0.296988 -0.132797
