ITEM: TIMESTEP
280
ITEM: NUMBER OF ATOMS
7
ITEM: BOX BOUNDS xy xz yz pp pp pp
0.0000000000000000e+00 3.0000000000000000e+01 0.0000000000000000e+00
0.0000000000000000e+00 3.0000000000000000e+01 0.0000000000000000e+00
0.0000000000000000e+00 3.0000000000000000e+01 0.0000000000000000e+00
ITEM: ATOMS id type x y z fx fy fz
6 1 2.69986 1.8777 0.716218 0.0570746 -0.146801 0.0130308
7 1 29.7754 3.21231 -0.115545 0.0215086 -0.00925037 0.00611897
5 1 6.01346 1.16549 1.65021 -0.486294 0.304096 -0.0252641
1 1 8.96183 29.694 1.36739 0.291988 -0.116547 -0.0431536
2 1 10.914 2.50743 1.11769 0.0045135 -0.101438 -0.0207253
4 1 6.31609 4.5284 1.74469 0.248593 0.00267768 0.0635879
3 1 9.62829 5.16665 2.48702 -0.137384 0.0672619 0.00640533
