ITEM: TIMESTEP
30
ITEM: NUMBER OF ATOMS
7
ITEM: BOX BOUNDS xy xz yz pp pp pp
0.0000000000000000e+00 3.0000000000000000e+01 0.0000000000000000e+00
0.0000000000000000e+00 3.0000000000000000e+01 0.0000000000000000e+00
0.0000000000000000e+00 3.0000000000000000e+01 0.0000000000000000e+00
ITEM: ATOMS id type x y z fx fy fz
6 1 2.26103 1.62748 29.6018 0.549712 0.291549 0.672249
7 1 29.8006 2.70014 1.56837 0.164361 -0.0746979 -0.136653
5 1 5.13908 2.49955 1.71285 -0.698028 -0.271527 -0.512241
1 1 9.62589 29.6333 1.92869 -0.049529 0.0485493 -0.00826065
2 1 11.4588 2.05518 0.889402 -0.211286 0.245431 -0.0554534
4 1 6.76536 4.8995 2.84831 0.217361 -0.0118645 -0.24747
3 1 9.25827 4.73679 0.418222 0.0274088 -0.22744 0.287829
