ITEM: TIMESTEP
320
ITEM: NUMBER OF ATOMS
7
ITEM: BOX BOUNDS xy xz yz pp pp pp
0.0000000000000000e+00 3.0000000000000000e+01 0.0000000000000000e+00
0.0000000000000000e+00 3.0000000000000000e+01 0.0000000000000000e+00
0.0000000000000000e+00 3.0000000000000000e+01 0.0000000000000000e+00
ITEM: ATOMS id type x y z fx fy fz
6 1 2.792 1.76156 0.926315 -0.500161 0.202542 -0.144782
7 1 29.8405 3.16714 29.6933 0.105735 -0.0663027 0.0485883
5 1 5.53105 1.21751 1.57528 0.660489 -0.376152 0.0699571
1 1 8.87063 29.9681 1.23727 -0.269001 0.0753359 0.0299934
2 1 11.008 2.5761 1.25436 0.155216 -0.181734 -0.0960767
4 1 6.54074 4.29544 1.68752 -0.165576 0.159375 -0.0252259
3 1 9.72607 5.16615 2.59368 0.0132988 0.186936 0.117545
