ITEM: TIMESTEP
340
ITEM: NUMBER OF ATOMS
7
ITEM: BOX BOUNDS xy xz yz pp pp pp
0.0000000000000000e+00 3.0000000000000000e+01 0.0000000000000000e+00
0.0000000000000000e+00 3.0000000000000000e+01 0.0000000000000000e+00
0.0000000000000000e+00 3.0000000000000000e+01 0.0000000000000000e+00
ITEM: ATOMS id type x y z fx fy fz
6 1 2.61258 1.76054 0.962166 0.1178 -0.0034717 0.0540959
7 1 29.8084 3.16419 29.5929 -0.153107 0.0673538 -0.0719357
5 1 5.64987 1.22978 1.61295 -0.388553 -0.129948 0.0812319
1 1 8.79564 30.108 1.18139 0.398333 -0.12189 -0.0578441
2 1 11.1473 2.47019 1.2591 -0.0644967 0.245453 0.135797
4 1 6.57569 4.15208 1.67177 0.114441 0.277893 0.0576405
3 1 9.71956 5.26715 2.68736 -0.0244164 -0.335389 -0.198986
