ITEM: TIMESTEP
380
ITEM: NUMBER OF ATOMS
7
ITEM: BOX BOUNDS xy xz yz pp pp pp
0.0000000000000000e+00 3.0000000000000000e+01 0.0000000000000000e+00
0.0000000000000000e+00 3.0000000000000000e+01 0.0000000000000000e+00
0.0000000000000000e+00 3.0000000000000000e+01 0.0000000000000000e+00
ITEM: ATOMS id type x y z fx fy fz
6 1 2.21934 1.83625 1.02473 0.93872 -0.294784 0.214753
7 1 29.603 3.21323 29.3513 -0.0537274 0.0215296 -0.0264964
5 1 5.72721 0.931516 1.78855 -0.676974 0.965969 -0.234157
1 1 8.99583 0.205185 1.03791 -0.0978399 -0.088959 -0.00577947
2 1 11.3586 2.55705 1.42056 0.15342 -0.0944646 -0.059375
4 1 6.6476 4.32523 1.69149 -0.21096 -0.670694 0.0313118
3 1 9.75741 5.08349 2.65316 -0.0526381 0.161403 0.0797431
