ITEM: TIMESTEP
410
ITEM: NUMBER OF ATOMS
7
ITEM: BOX BOUNDS xy xz yz pp pp pp
0.0000000000000000e+00 3.0000000000000000e+01 0.0000000000000000e+00
0.0000000000000000e+00 3.0000000000000000e+01 0.0000000000000000e+00
0.0000000000000000e+00 3.0000000000000000e+01 0.0000000000000000e+00
ITEM: ATOMS id type x y z fx fy fz
6 1 2.28086 1.82689 1.0454 -0.389292 0.0878708 -0.107948
7 1 29.6239 3.14401 29.3029 0.0430187 -0.032028 0.037641
5 1 5.59801 1.24494 1.73006 0.707118 -0.405799 -0.0548987
1 1 8.97133 0.281118 0.97935 -0.207389 0.148081 0.112288
2 1 11.5567 2.48756 1.4937 -0.245753 -0.0777412 0.00588822
4 1 6.5043 4.11914 1.74056 0.270371 0.383629 0.111967
3 1 9.77394 5.04831 2.67569 -0.178073 -0.104013 -0.104937
