ITEM: TIMESTEP
440
ITEM: NUMBER OF ATOMS
7
ITEM: BOX BOUNDS xy xz yz pp pp pp
0.0000000000000000e+00 3.0000000000000000e+01 0.0000000000000000e+00
0.0000000000000000e+00 3.0000000000000000e+01 0.0000000000000000e+00
0.0000000000000000e+00 3.0000000000000000e+01 0.0000000000000000e+00
ITEM: ATOMS id type x y z fx fy fz
6 1 2.2053 1.9181 0.89234 -0.223432 -0.0179687 0.140142
7 1 29.9507 2.89326 29.4609 -0.422788 0.175496 -0.262091
5 1 5.4829 1.22735 1.50635 0.815243 -0.20316 0.100359
1 1 8.8923 0.514153 1.00599 -0.220133 -0.132728 -0.0271075
2 1 11.4868 2.26695 1.5715 0.088124 0.0743401 0.0260463
4 1 6.55656 4.37048 1.89403 -0.147089 0.0583385 -0.0108144
3 1 9.7344 4.96166 2.63654 0.110075 0.0456817 0.0334647
