ITEM: TIMESTEP
450
ITEM: NUMBER OF ATOMS
7
ITEM: BOX BOUNDS xy xz yz pp pp pp
0.0000000000000000e+00 3.0000000000000000e+01 0.0000000000000000e+00
0.0000000000000000e+00 3.0000000000000000e+01 0.0000000000000000e+00
0.0000000000000000e+00 3.0000000000000000e+01 0.0000000000000000e+00
ITEM: ATOMS id type x y z fx fy fz
6 1 2.34017 1.8949 0.91932 -0.335812 0.0638529 0.0246357
7 1 29.9597 2.84741 29.4486 -0.158504 0.0605263 -0.102422
5 1 5.42685 1.17364 1.39396 0.474809 0.48477 0.2051
1 1 8.80013 0.568161 1.01346 0.150997 -0.236321 -0.0927931
2 1 11.4693 2.20901 1.61114 0.0933288 0.0786731 0.0275325
4 1 6.55224 4.5216 1.95317 -0.20337 -0.480804 -0.069201
3 1 9.76061 4.93723 2.62798 -0.0214485 0.029302 0.00714753
