ITEM: TIMESTEP
460
ITEM: NUMBER OF ATOMS
7
ITEM: BOX BOUNDS xy xz yz pp pp pp
0.0000000000000000e+00 3.0000000000000000e+01 0.0000000000000000e+00
0.0000000000000000e+00 3.0000000000000000e+01 0.0000000000000000e+00
0.0000000000000000e+00 3.0000000000000000e+01 0.0000000000000000e+00
ITEM: ATOMS id type x y z fx fy fz
6 1 2.43197 1.87851 0.954252 -0.189644 0.0153017 -0.0119983
7 1 29.9389 2.81049 29.4161 -0.0212075 0.00535073 -0.0192106
5 1 5.44895 1.19196 1.30774 0.0174503 0.744594 0.213116
1 1 8.72137 0.586315 1.00646 0.296611 -0.2671 -0.111126
2 1 11.4669 2.16145 1.65826 0.100485 0.106329 0.042139
4 1 6.51499 4.60713 2.00472 -0.119441 -0.600132 -0.0968925
3 1 9.78591 4.91609 2.62019 -0.0842531 -0.00434404 -0.0160274
