ITEM: TIMESTEP
480
ITEM: NUMBER OF ATOMS
7
ITEM: BOX BOUNDS xy xz yz pp pp pp
0.0000000000000000e+00 3.0000000000000000e+01 0.0000000000000000e+00
0.0000000000000000e+00 3.0000000000000000e+01 0.0000000000000000e+00
0.0000000000000000e+00 3.0000000000000000e+01 0.0000000000000000e+00
ITEM: ATOMS id type x y z fx fy fz
6 1 2.5539 1.8447 1.04574 0.0144597 0.00483362 0.146627
7 1 29.8506 2.74065 29.3136 -0.232518 0.0717163 -0.147407
5 1 5.48283 1.54549 1.2098 -0.244886 -0.0631733 0.001925
1 1 8.71915 0.483655 0.93264 0.480598 -0.236831 -0.0688272
2 1 11.5108 2.10991 1.78732 -0.0331658 0.0486748 0.0151082
4 1 6.38886 4.56292 2.0847 0.0571767 0.185206 0.0637612
3 1 9.80278 4.86464 2.59391 -0.0416643 -0.0104263 -0.0111869
