ITEM: TIMESTEP
510
ITEM: NUMBER OF ATOMS
7
ITEM: BOX BOUNDS xy xz yz pp pp pp
0.0000000000000000e+00 3.0000000000000000e+01 0.0000000000000000e+00
0.0000000000000000e+00 3.0000000000000000e+01 0.0000000000000000e+00
0.0000000000000000e+00 3.0000000000000000e+01 0.0000000000000000e+00
ITEM: ATOMS id type x y z fx fy fz
6 1 2.38757 1.88152 1.17034 -0.415859 0.0279332 -0.000378911
7 1 29.7232 2.60578 29.1659 0.0211492 -0.0121266 0.0234291
5 1 5.78144 1.97447 1.0059 0.662359 -0.407075 -0.153985
1 1 8.89669 0.18943 0.762728 -0.138345 0.326612 0.122693
2 1 11.5227 2.04802 2.01147 -0.222124 -0.134664 -0.101004
4 1 6.26847 4.67132 2.31329 0.0535601 0.136558 0.0750656
3 1 9.72894 4.78142 2.53809 0.0392597 0.0627627 0.0341804
