ITEM: TIMESTEP
520
ITEM: NUMBER OF ATOMS
7
ITEM: BOX BOUNDS xy xz yz pp pp pp
0.0000000000000000e+00 3.0000000000000000e+01 0.0000000000000000e+00
0.0000000000000000e+00 3.0000000000000000e+01 0.0000000000000000e+00
0.0000000000000000e+00 3.0000000000000000e+01 0.0000000000000000e+00
ITEM: ATOMS id type x y z fx fy fz
6 1 2.20057 1.93668 1.15361 0.261177 0.00975519 -0.0528988
7 1 29.7635 2.5318 29.1771 0.0558264 -0.0117787 0.0367021
5 1 6.0261 1.98225 0.891377 -0.517123 -0.0108615 -0.046569
1 1 8.90339 0.161368 0.731616 0.285595 -0.0137998 0.0633199
2 1 11.4673 1.99468 2.064 -0.153108 -0.0774436 -0.0685639
4 1 6.25512 4.77509 2.42388 0.079093 0.0789428 0.0526259
3 1 9.69303 4.77009 2.52611 -0.01146 0.0251856 0.0153839
