ITEM: TIMESTEP
560
ITEM: NUMBER OF ATOMS
7
ITEM: BOX BOUNDS xy xz yz pp pp pp
0.0000000000000000e+00 3.0000000000000000e+01 0.0000000000000000e+00
0.0000000000000000e+00 3.0000000000000000e+01 0.0000000000000000e+00
0.0000000000000000e+00 3.0000000000000000e+01 0.0000000000000000e+00
ITEM: ATOMS id type x y z fx fy fz
6 1 1.85264 2.14757 1.28467 0.0728703 0.066912 -0.144429
7 1 29.729 2.287 29.0443 0.116505 -0.0112448 0.14459
5 1 6.60785 2.32925 0.606567 -0.164167 -0.0448266 -0.0490742
1 1 9.08961 -0.0460655 0.623461 -0.0168582 -0.0280698 -0.0117168
2 1 11.2203 1.79124 2.24848 -0.0116106 0.170087 0.0497065
4 1 6.29926 4.83328 2.63881 -0.210911 -0.000273397 0.0294412
3 1 9.51034 4.80968 2.52138 0.214171 -0.152584 -0.0185179
