ITEM: TIMESTEP
570
ITEM: NUMBER OF ATOMS
7
ITEM: BOX BOUNDS xy xz yz pp pp pp
0.0000000000000000e+00 3.0000000000000000e+01 0.0000000000000000e+00
0.0000000000000000e+00 3.0000000000000000e+01 0.0000000000000000e+00
0.0000000000000000e+00 3.0000000000000000e+01 0.0000000000000000e+00
ITEM: ATOMS id type x y z fx fy fz
6 1 1.8594 2.2066 1.36779 0.118514 0.0746131 -0.136342
7 1 29.6638 2.23951 28.9672 0.109858 -0.00477426 0.138015
5 1 6.70233 2.46293 0.562561 0.174352 -0.504187 -0.170773
1 1 9.12318 29.8758 0.58516 -0.249426 0.380007 0.0487051
2 1 11.1825 1.78896 2.31262 -0.0383031 0.0455103 -0.0120932
4 1 6.27579 4.77269 2.64832 -0.255144 0.144329 0.165303
3 1 9.50195 4.8055 2.52401 0.14015 -0.135498 -0.0328154
