ITEM: TIMESTEP
590
ITEM: NUMBER OF ATOMS
7
ITEM: BOX BOUNDS xy xz yz pp pp pp
0.0000000000000000e+00 3.0000000000000000e+01 0.0000000000000000e+00
0.0000000000000000e+00 3.0000000000000000e+01 0.0000000000000000e+00
0.0000000000000000e+00 3.0000000000000000e+01 0.0000000000000000e+00
ITEM: ATOMS id type x y z fx fy fz
6 1 1.92119 2.35865 1.4524 -7.52196e-06 0.0664716 -0.226944
7 1 29.6017 2.1462 28.8968 0.210793 0.0156975 0.247205
5 1 6.95538 2.51463 0.407805 -0.0723505 0.099611 0.0793278
1 1 9.0896 29.8927 0.537066 0.0250776 0.0487428 0.0460075
2 1 11.0935 1.79275 2.42829 0.00213312 -0.0292467 -0.0122351
4 1 6.12675 4.70598 2.7328 0.114139 -0.137202 -0.0988477
3 1 9.52089 4.74107 2.51256 -0.279785 -0.0640741 -0.0345139
