ITEM: TIMESTEP
600
ITEM: NUMBER OF ATOMS
7
ITEM: BOX BOUNDS xy xz yz pp pp pp
0.0000000000000000e+00 3.0000000000000000e+01 0.0000000000000000e+00
0.0000000000000000e+00 3.0000000000000000e+01 0.0000000000000000e+00
0.0000000000000000e+00 3.0000000000000000e+01 0.0000000000000000e+00
ITEM: ATOMS id type x y z fx fy fz
6 1 1.95916 2.45199 1.44245 -0.0269111 0.0460041 -0.21466
7 1 29.6182 2.10256 28.918 0.207839 0.0270412 0.238336
5 1 7.08302 2.52426 0.335021 -0.167159 0.323527 0.205167
1 1 9.06128 29.9405 0.526376 0.0638938 -0.0998334 0.0123449
2 1 11.0482 1.78527 2.48105 0.0697216 -0.0378767 0.0265572
4 1 6.05876 4.65527 2.76695 0.251991 -0.226428 -0.227364
3 1 9.48035 4.69209 2.49787 -0.399374 -0.0324344 -0.0403804
