ITEM: TIMESTEP
610
ITEM: NUMBER OF ATOMS
7
ITEM: BOX BOUNDS xy xz yz pp pp pp
0.0000000000000000e+00 3.0000000000000000e+01 0.0000000000000000e+00
0.0000000000000000e+00 3.0000000000000000e+01 0.0000000000000000e+00
0.0000000000000000e+00 3.0000000000000000e+01 0.0000000000000000e+00
ITEM: ATOMS id type x y z fx fy fz
6 1 1.99401 2.55428 1.39732 0.000512439 0.0275879 -0.131243
7 1 29.6689 2.06273 28.9784 0.134244 0.0253459 0.152119
5 1 7.1856 2.58568 0.292353 -0.143762 0.359043 0.110755
1 1 9.04398 29.9721 0.51802 0.132753 -0.234537 0.00305693
2 1 11.0144 1.77013 2.53859 0.150204 -0.123275 0.0415957
4 1 6.02532 4.5695 2.76757 -0.0628464 -0.0784028 -0.0771306
3 1 9.37678 4.63753 2.47544 -0.211105 0.0242387 -0.0991524
