ITEM: TIMESTEP
620
ITEM: NUMBER OF ATOMS
7
ITEM: BOX BOUNDS xy xz yz pp pp pp
0.0000000000000000e+00 3.0000000000000000e+01 0.0000000000000000e+00
0.0000000000000000e+00 3.0000000000000000e+01 0.0000000000000000e+00
0.0000000000000000e+00 3.0000000000000000e+01 0.0000000000000000e+00
ITEM: ATOMS id type x y z fx fy fz
6 1 2.02816 2.66242 1.32827 -0.042503 -0.00918236 -0.0990415
7 1 29.7439 2.02671 29.0663 0.0951709 0.0254075 0.102804
5 1 7.26218 2.70274 0.262706 -0.166752 0.149055 -0.160105
1 1 9.04853 29.9665 0.510602 0.188466 -0.230437 0.039931
2 1 11.0041 1.73431 2.60322 0.128467 -0.182803 -0.00470223
4 1 5.98192 4.4694 2.75572 -0.317228 0.0918105 0.120385
3 1 9.24021 4.58993 2.44086 0.114379 0.156149 0.00072867
