ITEM: TIMESTEP
630
ITEM: NUMBER OF ATOMS
7
ITEM: BOX BOUNDS xy xz yz pp pp pp
0.0000000000000000e+00 3.0000000000000000e+01 0.0000000000000000e+00
0.0000000000000000e+00 3.0000000000000000e+01 0.0000000000000000e+00
0.0000000000000000e+00 3.0000000000000000e+01 0.0000000000000000e+00
ITEM: ATOMS id type x y z fx fy fz
6 1 2.054 2.76928 1.24112 -0.202359 -0.0849694 -0.166469
7 1 29.8359 1.99483 29.1726 0.127732 0.045027 0.122883
5 1 7.31059 2.84567 0.207969 -0.192008 -0.0390124 -0.250386
1 1 9.08481 29.9247 0.510909 0.224613 -0.0301144 0.139238
2 1 11.013 1.66875 2.66623 -0.0728118 -0.117839 -0.130296
4 1 5.88997 4.38248 2.76182 -0.217695 0.141495 0.159125
3 1 9.12072 4.56621 2.40701 0.332529 0.0854132 0.125904
