ITEM: TIMESTEP
650
ITEM: NUMBER OF ATOMS
7
ITEM: BOX BOUNDS xy xz yz pp pp pp
0.0000000000000000e+00 3.0000000000000000e+01 0.0000000000000000e+00
0.0000000000000000e+00 3.0000000000000000e+01 0.0000000000000000e+00
0.0000000000000000e+00 3.0000000000000000e+01 0.0000000000000000e+00
ITEM: ATOMS id type x y z fx fy fz
6 1 2.06951 2.962 1.04638 0.408807 0.201898 0.327801
7 1 30.0082 1.92625 29.3777 -0.484309 -0.24384 -0.393387
5 1 7.34529 3.03851 0.0338471 -0.0743008 -0.332958 0.441316
1 1 9.20944 29.9173 0.564954 -0.257792 0.428878 -0.113768
2 1 10.9695 1.52537 2.72262 -0.103699 0.23833 -0.013661
4 1 5.65712 4.26654 2.81623 0.439094 -0.0665886 -0.36457
3 1 9.04987 4.51599 2.40593 0.0721997 -0.225719 0.116269
