ITEM: TIMESTEP
660
ITEM: NUMBER OF ATOMS
7
ITEM: BOX BOUNDS xy xz yz pp pp pp
0.0000000000000000e+00 3.0000000000000000e+01 0.0000000000000000e+00
0.0000000000000000e+00 3.0000000000000000e+01 0.0000000000000000e+00
0.0000000000000000e+00 3.0000000000000000e+01 0.0000000000000000e+00
ITEM: ATOMS id type x y z fx fy fz
6 1 2.14523 3.08778 1.01008 0.22551 0.129504 0.169869
7 1 30.0011 1.84872 29.4027 -0.202465 -0.118696 -0.152486
5 1 7.34682 3.04386 0.0183207 -0.147096 -0.211316 0.381187
1 1 9.22136 30.015 0.575036 -0.373398 0.0938733 -0.356895
2 1 10.9181 1.50349 2.73875 0.259311 0.164289 0.270514
4 1 5.61765 4.20613 2.78353 0.327051 -0.109418 -0.446318
3 1 9.05872 4.44699 2.43925 -0.0889141 0.0517648 0.134129
