ITEM: TIMESTEP
70
ITEM: NUMBER OF ATOMS
7
ITEM: BOX BOUNDS xy xz yz pp pp pp
0.0000000000000000e+00 3.0000000000000000e+01 0.0000000000000000e+00
0.0000000000000000e+00 3.0000000000000000e+01 0.0000000000000000e+00
0.0000000000000000e+00 3.0000000000000000e+01 0.0000000000000000e+00
ITEM: ATOMS id type x y z fx fy fz
6 1 2.46117 1.62241 29.789 -0.042544 -0.0736013 -0.140996
7 1 29.8263 2.85923 1.25626 -0.0786661 0.0408795 0.0521215
5 1 5.0456 2.25118 1.53815 0.0819442 -0.0653918 0.0805496
1 1 9.68618 29.4115 1.88539 -0.0230316 0.0381776 -0.010766
2 1 11.2794 2.25214 0.863655 0.202264 -0.278213 -0.00308424
4 1 6.74385 5.02092 2.72034 -0.194238 0.0815357 0.169684
3 1 9.2665 4.73461 0.914855 0.0542719 0.256613 -0.147509
