ITEM: TIMESTEP
700
ITEM: NUMBER OF ATOMS
7
ITEM: BOX BOUNDS xy xz yz pp pp pp
0.0000000000000000e+00 3.0000000000000000e+01 0.0000000000000000e+00
0.0000000000000000e+00 3.0000000000000000e+01 0.0000000000000000e+00
0.0000000000000000e+00 3.0000000000000000e+01 0.0000000000000000e+00
ITEM: ATOMS id type x y z fx fy fz
6 1 2.56134 3.56621 0.994265 -0.318838 -0.319263 -0.249244
7 1 30.0051 1.60776 29.4992 0.377958 0.301417 0.228784
5 1 7.24745 2.97423 -0.0202936 0.185431 0.189506 0.134867
1 1 9.11936 0.239465 0.347981 0.329498 0.013076 0.323094
2 1 10.9903 1.50574 3.01981 -0.362445 0.0367753 -0.354191
4 1 5.35359 3.9746 2.41507 0.280428 0.140829 0.214346
3 1 9.03177 4.28397 2.71166 -0.492032 -0.36234 -0.297655
