ITEM: TIMESTEP
730
ITEM: NUMBER OF ATOMS
7
ITEM: BOX BOUNDS xy xz yz pp pp pp
0.0000000000000000e+00 3.0000000000000000e+01 0.0000000000000000e+00
0.0000000000000000e+00 3.0000000000000000e+01 0.0000000000000000e+00
0.0000000000000000e+00 3.0000000000000000e+01 0.0000000000000000e+00
ITEM: ATOMS id type x y z fx fy fz
6 1 2.34185 3.55148 0.676735 1.035 0.474438 0.637878
7 1 0.339742 1.72685 29.7669 -0.400969 -0.353605 -0.180621
5 1 7.31943 3.07736 29.8347 0.023904 -0.19334 0.192666
1 1 9.38133 0.247637 0.431484 -0.270974 0.048772 -0.352256
2 1 10.877 1.45197 2.95593 0.366936 -0.118845 0.280375
4 1 5.37341 4.06413 2.58027 -0.83929 -0.144804 -0.681858
3 1 8.67622 4.03254 2.7217 0.0853945 0.287384 0.103816
