ITEM: TIMESTEP
750
ITEM: NUMBER OF ATOMS
7
ITEM: BOX BOUNDS xy xz yz pp pp pp
0.0000000000000000e+00 3.0000000000000000e+01 0.0000000000000000e+00
0.0000000000000000e+00 3.0000000000000000e+01 0.0000000000000000e+00
0.0000000000000000e+00 3.0000000000000000e+01 0.0000000000000000e+00
ITEM: ATOMS id type x y z fx fy fz
6 1 2.46029 3.70113 0.651854 -0.431517 -0.0936496 -0.322422
7 1 0.350052 1.64657 29.8348 0.0211456 0.0241984 0.0126814
5 1 7.35328 3.04314 29.8511 -0.112693 -0.0307904 0.288216
1 1 9.4225 0.273405 0.331218 0.0116703 0.120587 0.0441921
2 1 10.9729 1.35686 3.02567 -0.332444 0.280559 -0.131517
4 1 5.17385 4.09879 2.49298 0.374854 0.0327769 0.0790729
3 1 8.57614 4.03207 2.78001 0.468984 -0.333681 0.0297757
