ITEM: TIMESTEP
770
ITEM: NUMBER OF ATOMS
7
ITEM: BOX BOUNDS xy xz yz pp pp pp
0.0000000000000000e+00 3.0000000000000000e+01 0.0000000000000000e+00
0.0000000000000000e+00 3.0000000000000000e+01 0.0000000000000000e+00
0.0000000000000000e+00 3.0000000000000000e+01 0.0000000000000000e+00
ITEM: ATOMS id type x y z fx fy fz
6 1 2.47113 3.87172 0.530948 -0.226487 0.0463151 -0.222919
7 1 0.300956 1.51737 29.8772 -0.0680134 -0.0791981 -0.0143419
5 1 7.31433 2.98351 30.0291 -0.215644 0.0780533 -0.186198
1 1 9.45439 0.359143 0.232568 0.172503 -0.137672 0.0475647
2 1 10.9413 1.37922 3.04479 0.108857 -0.148068 -0.0394941
4 1 5.14183 4.1342 2.38655 0.385112 0.0731551 0.277653
3 1 8.68502 3.90679 2.86655 -0.156327 0.167414 0.137735
