ITEM: TIMESTEP
780
ITEM: NUMBER OF ATOMS
7
ITEM: BOX BOUNDS xy xz yz pp pp pp
0.0000000000000000e+00 3.0000000000000000e+01 0.0000000000000000e+00
0.0000000000000000e+00 3.0000000000000000e+01 0.0000000000000000e+00
0.0000000000000000e+00 3.0000000000000000e+01 0.0000000000000000e+00
ITEM: ATOMS id type x y z fx fy fz
6 1 2.41333 3.96288 0.411835 -0.261484 -0.0630916 -0.146789
7 1 0.264203 1.43808 29.8964 0.0337683 0.0484211 0.00803896
5 1 7.24028 2.97324 0.09216 -0.00824315 -0.029417 -0.224691
1 1 9.51231 0.37585 0.199405 0.103051 -0.079977 0.0148001
2 1 10.9253 1.37784 3.03619 0.177767 -0.204925 -0.0169846
4 1 5.21985 4.16786 2.39015 0.134637 0.108358 0.263923
3 1 8.73373 3.85622 2.94152 -0.179495 0.220632 0.101703
