ITEM: TIMESTEP
790
ITEM: NUMBER OF ATOMS
7
ITEM: BOX BOUNDS xy xz yz pp pp pp
0.0000000000000000e+00 3.0000000000000000e+01 0.0000000000000000e+00
0.0000000000000000e+00 3.0000000000000000e+01 0.0000000000000000e+00
0.0000000000000000e+00 3.0000000000000000e+01 0.0000000000000000e+00
ITEM: ATOMS id type x y z fx fy fz
6 1 2.33497 4.04719 0.283392 0.471632 -0.0840019 0.46798
7 1 0.231591 1.36481 29.9168 0.0861274 0.129257 0.00899323
5 1 7.16705 2.95612 0.12155 0.36894 -0.212574 -0.0343958
1 1 9.58587 0.382219 0.168843 -0.0959173 0.136226 0.0171115
2 1 10.9377 1.34276 3.02391 0.149395 -0.190779 -0.0405008
4 1 5.29921 4.21829 2.42058 -0.742628 0.0681689 -0.344179
3 1 8.75258 3.84056 3.03258 -0.237548 0.153703 -0.07501
