ITEM: TIMESTEP
80
ITEM: NUMBER OF ATOMS
7
ITEM: BOX BOUNDS xy xz yz pp pp pp
0.0000000000000000e+00 3.0000000000000000e+01 0.0000000000000000e+00
0.0000000000000000e+00 3.0000000000000000e+01 0.0000000000000000e+00
0.0000000000000000e+00 3.0000000000000000e+01 0.0000000000000000e+00
ITEM: ATOMS id type x y z fx fy fz
6 1 2.51047 1.62914 29.8493 -0.0297982 -0.0817964 -0.160544
7 1 29.843 2.88834 1.18285 -0.120582 0.0572566 0.0615029
5 1 5.0716 2.29335 1.5566 -0.0246056 -0.337632 -0.0344757
1 1 9.69991 29.4083 1.86217 -0.0336843 -0.0275802 0.00986049
2 1 11.2162 2.26779 0.860162 0.224763 -0.227414 -0.0335105
4 1 6.69615 4.91701 2.59284 -0.0164137 0.380516 0.263052
3 1 9.27163 4.74799 1.06378 0.00032029 0.23665 -0.105885
