ITEM: TIMESTEP
810
ITEM: NUMBER OF ATOMS
7
ITEM: BOX BOUNDS xy xz yz pp pp pp
0.0000000000000000e+00 3.0000000000000000e+01 0.0000000000000000e+00
0.0000000000000000e+00 3.0000000000000000e+01 0.0000000000000000e+00
0.0000000000000000e+00 3.0000000000000000e+01 0.0000000000000000e+00
ITEM: ATOMS id type x y z fx fy fz
6 1 2.35003 4.13538 0.228998 -0.113892 -0.407065 0.155357
7 1 0.235125 1.31845 29.9655 0.290629 0.417787 0.0252307
5 1 7.19748 2.84087 0.2062 0.112962 0.183055 0.260892
1 1 9.69551 0.452379 0.111977 0.133598 -0.139623 -0.0269254
2 1 11.0151 1.20458 2.98193 -0.268755 0.334105 0.0376621
4 1 5.17957 4.34756 2.32961 0.093294 0.00347226 -0.0410457
3 1 8.63619 3.85275 3.14343 -0.247836 -0.391731 -0.411171
