ITEM: TIMESTEP
820
ITEM: NUMBER OF ATOMS
7
ITEM: BOX BOUNDS xy xz yz pp pp pp
0.0000000000000000e+00 3.0000000000000000e+01 0.0000000000000000e+00
0.0000000000000000e+00 3.0000000000000000e+01 0.0000000000000000e+00
0.0000000000000000e+00 3.0000000000000000e+01 0.0000000000000000e+00
ITEM: ATOMS id type x y z fx fy fz
6 1 2.36853 4.09399 0.264273 -0.314604 -0.108832 -0.193615
7 1 0.300616 1.38631 29.9967 0.0476871 0.0731956 0.00451497
5 1 7.26525 2.7959 0.302364 -0.241453 0.102963 -0.25472
1 1 9.76555 0.477809 0.0775883 0.228904 -0.24145 -0.0752148
2 1 11.0159 1.18134 2.96409 -0.30777 0.400925 0.103571
4 1 5.09001 4.41951 2.24523 0.330972 0.104819 0.334045
3 1 8.50317 3.79709 3.11743 0.256264 -0.33162 0.0814182
