ITEM: TIMESTEP
830
ITEM: NUMBER OF ATOMS
7
ITEM: BOX BOUNDS xy xz yz pp pp pp
0.0000000000000000e+00 3.0000000000000000e+01 0.0000000000000000e+00
0.0000000000000000e+00 3.0000000000000000e+01 0.0000000000000000e+00
0.0000000000000000e+00 3.0000000000000000e+01 0.0000000000000000e+00
ITEM: ATOMS id type x y z fx fy fz
6 1 2.33188 4.02549 0.270225 -0.354559 -0.0424335 -0.264975
7 1 0.382135 1.47651 30.0305 -0.0125167 -0.0178344 0.00223228
5 1 7.29401 2.76246 0.352628 -0.364995 -0.113623 -0.65876
1 1 9.87523 0.46506 0.0290563 0.122874 -0.151485 -0.0968058
2 1 10.9666 1.22258 2.96247 -0.102846 0.180459 0.107673
4 1 5.05398 4.51064 2.21076 0.432398 0.0916572 0.345134
3 1 8.40511 3.68923 3.11207 0.279645 0.0532603 0.565501
