ITEM: TIMESTEP
870
ITEM: NUMBER OF ATOMS
7
ITEM: BOX BOUNDS xy xz yz pp pp pp
0.0000000000000000e+00 3.0000000000000000e+01 0.0000000000000000e+00
0.0000000000000000e+00 3.0000000000000000e+01 0.0000000000000000e+00
0.0000000000000000e+00 3.0000000000000000e+01 0.0000000000000000e+00
ITEM: ATOMS id type x y z fx fy fz
6 1 2.42339 4.04617 0.363391 -0.523956 -0.145634 -0.287419
7 1 0.511832 1.59059 0.150305 0.0315955 0.0361847 0.00828074
5 1 7.30323 2.47363 0.284676 -0.133091 0.0287247 -0.0915494
1 1 10.1048 0.590532 29.8572 0.259017 -0.159265 0.00148455
2 1 10.7983 1.40699 2.95665 -0.0952382 0.0647407 0.0143241
4 1 5.22847 4.6436 1.90708 0.029589 0.416809 0.229423
3 1 7.93898 3.40044 3.44836 0.432085 -0.24156 0.125456
