ITEM: TIMESTEP
880
ITEM: NUMBER OF ATOMS
7
ITEM: BOX BOUNDS xy xz yz pp pp pp
0.0000000000000000e+00 3.0000000000000000e+01 0.0000000000000000e+00
0.0000000000000000e+00 3.0000000000000000e+01 0.0000000000000000e+00
0.0000000000000000e+00 3.0000000000000000e+01 0.0000000000000000e+00
ITEM: ATOMS id type x y z fx fy fz
6 1 2.44518 4.11625 0.369132 -0.363166 0.0171367 -0.216885
7 1 0.485597 1.54478 0.174604 -0.067218 -0.0986199 -0.00106527
5 1 7.34134 2.39881 0.336099 -0.151483 -0.0333491 -0.180246
1 1 10.124 0.668359 29.8466 0.28857 -0.210128 -0.130115
2 1 10.7612 1.43841 2.93468 0.0271273 0.0220564 0.116763
4 1 5.29383 4.69677 1.7985 -0.0669881 0.463573 0.168539
3 1 7.85785 3.28858 3.50805 0.333158 -0.160669 0.243009
