ITEM: TIMESTEP
90
ITEM: NUMBER OF ATOMS
7
ITEM: BOX BOUNDS xy xz yz pp pp pp
0.0000000000000000e+00 3.0000000000000000e+01 0.0000000000000000e+00
0.0000000000000000e+00 3.0000000000000000e+01 0.0000000000000000e+00
0.0000000000000000e+00 3.0000000000000000e+01 0.0000000000000000e+00
ITEM: ATOMS id type x y z fx fy fz
6 1 2.55327 1.62221 29.8813 -0.0028186 -0.0786758 -0.140338
7 1 29.8396 2.92572 1.12207 -0.133511 0.0609873 0.0567686
5 1 5.09326 2.28047 1.5696 -0.0286678 -0.358291 -0.0477274
1 1 9.70764 29.4017 1.84113 -0.0381689 -0.0242963 0.0105215
2 1 11.1932 2.24332 0.851246 0.268031 -0.286302 -0.0571743
4 1 6.6451 4.87699 2.51247 -0.0876645 0.39814 0.278206
3 1 9.27698 4.80152 1.18984 0.0228001 0.288438 -0.100257
