ITEM: TIMESTEP
910
ITEM: NUMBER OF ATOMS
7
ITEM: BOX BOUNDS xy xz yz pp pp pp
0.0000000000000000e+00 3.0000000000000000e+01 0.0000000000000000e+00
0.0000000000000000e+00 3.0000000000000000e+01 0.0000000000000000e+00
0.0000000000000000e+00 3.0000000000000000e+01 0.0000000000000000e+00
ITEM: ATOMS id type x y z fx fy fz
6 1 2.26417 4.30408 0.25207 0.641899 -0.0639717 0.318486
7 1 0.384228 1.37904 0.244705 0.111069 0.206977 -0.00962932
5 1 7.26559 2.27551 0.493773 0.278593 -0.0896445 -0.153513
1 1 10.4185 0.728456 29.7094 -0.343193 0.236113 0.357586
2 1 10.7179 1.51897 2.95241 -0.0337119 -0.0678793 -0.217808
4 1 5.59479 4.99053 1.64719 -0.608938 -0.36593 -0.205251
3 1 7.66388 2.95538 3.66817 -0.0457196 0.144335 -0.0898707
