ITEM: TIMESTEP
920
ITEM: NUMBER OF ATOMS
7
ITEM: BOX BOUNDS xy xz yz pp pp pp
0.0000000000000000e+00 3.0000000000000000e+01 0.0000000000000000e+00
0.0000000000000000e+00 3.0000000000000000e+01 0.0000000000000000e+00
0.0000000000000000e+00 3.0000000000000000e+01 0.0000000000000000e+00
ITEM: ATOMS id type x y z fx fy fz
6 1 2.31538 4.34449 0.271892 0.287585 -0.337199 0.228487
7 1 0.376618 1.37233 0.264804 0.261693 0.442066 -0.0103945
5 1 7.24209 2.26891 0.55437 0.449892 -0.394802 -0.651173
1 1 10.4883 0.765514 29.7125 -0.420783 0.261012 0.390768
2 1 10.7116 1.52687 2.92865 -0.24921 0.0251853 -0.173566
4 1 5.62773 4.96667 1.58474 -0.684692 0.00131254 -0.16824
3 1 7.54728 2.90718 3.65068 0.355515 0.00242499 0.384119
