ITEM: TIMESTEP
950
ITEM: NUMBER OF ATOMS
7
ITEM: BOX BOUNDS xy xz yz pp pp pp
0.0000000000000000e+00 3.0000000000000000e+01 0.0000000000000000e+00
0.0000000000000000e+00 3.0000000000000000e+01 0.0000000000000000e+00
0.0000000000000000e+00 3.0000000000000000e+01 0.0000000000000000e+00
ITEM: ATOMS id type x y z fx fy fz
6 1 2.42321 4.1839 0.398283 -0.488838 -0.124963 -0.143716
7 1 0.54141 1.66216 0.317039 0.0431622 0.0601167 0.00172524
5 1 7.41457 2.05105 0.391382 -0.214926 0.163631 0.167122
1 1 10.4829 0.963518 29.768 0.258726 -0.132241 -0.202845
2 1 10.4978 1.61435 2.94326 0.0806472 -0.0293796 0.116978
4 1 5.55438 4.83631 1.46551 0.443154 -0.0266731 0.179364
3 1 7.39469 2.84067 3.68422 -0.121925 0.0895092 -0.118628
