ITEM: TIMESTEP
960
ITEM: NUMBER OF ATOMS
7
ITEM: BOX BOUNDS xy xz yz pp pp pp
0.0000000000000000e+00 3.0000000000000000e+01 0.0000000000000000e+00
0.0000000000000000e+00 3.0000000000000000e+01 0.0000000000000000e+00
0.0000000000000000e+00 3.0000000000000000e+01 0.0000000000000000e+00
ITEM: ATOMS id type x y z fx fy fz
6 1 2.34503 4.09703 0.406802 0.448163 0.367487 0.0904547
7 1 0.606516 1.77592 0.333466 -0.249614 -0.309091 -0.0162415
5 1 7.42272 2.01766 0.366024 -0.0421884 -0.0358635 0.0138284
1 1 10.5385 0.984827 29.6899 0.172611 -0.0190186 0.216252
2 1 10.42 1.65648 3.03288 0.0773531 -0.102298 -0.288039
4 1 5.65301 4.75837 1.5011 -0.474929 0.193302 -0.202292
3 1 7.32321 2.86168 3.63748 0.0686047 -0.0945186 0.186037
