ITEM: TIMESTEP
970
ITEM: NUMBER OF ATOMS
7
ITEM: BOX BOUNDS xy xz yz pp pp pp
0.0000000000000000e+00 3.0000000000000000e+01 0.0000000000000000e+00
0.0000000000000000e+00 3.0000000000000000e+01 0.0000000000000000e+00
0.0000000000000000e+00 3.0000000000000000e+01 0.0000000000000000e+00
ITEM: ATOMS id type x y z fx fy fz
6 1 2.32843 4.06599 0.42603 0.868971 0.632231 0.171945
7 1 0.632589 1.8406 0.347093 -0.423825 -0.53381 -0.0248245
5 1 7.42304 1.98166 0.346274 0.100909 -0.0696681 0.0447136
1 1 10.62 1.00238 29.6482 -0.00427183 0.0830756 0.529058
2 1 10.3564 1.68127 3.07429 0.045209 -0.132851 -0.569592
4 1 5.68415 4.7132 1.50656 -0.751078 0.203222 -0.331425
3 1 7.26434 2.86686 3.61923 0.164085 -0.1822 0.180125
