ITEM: TIMESTEP
980
ITEM: NUMBER OF ATOMS
7
ITEM: BOX BOUNDS xy xz yz pp pp pp
0.0000000000000000e+00 3.0000000000000000e+01 0.0000000000000000e+00
0.0000000000000000e+00 3.0000000000000000e+01 0.0000000000000000e+00
0.0000000000000000e+00 3.0000000000000000e+01 0.0000000000000000e+00
ITEM: ATOMS id type x y z fx fy fz
6 1 2.42674 4.12971 0.465784 -0.487345 0.0569396 -0.170494
7 1 0.59251 1.82202 0.356628 -0.133714 -0.153893 -0.0109727
5 1 7.43922 1.93596 0.335871 0.133378 0.025174 0.183057
1 1 10.7013 1.03187 29.6882 -0.0740408 0.052658 0.302386
2 1 10.3031 1.68394 3.02646 0.151542 -0.128484 -0.354074
4 1 5.61584 4.70544 1.46482 0.366732 0.316695 -0.0341378
3 1 7.23027 2.84302 3.62993 0.0434483 -0.169089 0.0842351
