 Entering Gaussian System, Link 0=g16
 Initial command:
 /home/sekinelabo/g16/l1.exe "/home/sekinelabo/g16temp/Gau-1046137.inp" -scrdir="/home/sekinelabo/g16temp/"
 Entering Link 1 = /home/sekinelabo/g16/l1.exe PID=   1046204.
  
 Copyright (c) 1988-2017, Gaussian, Inc.  All Rights Reserved.
  
 This is part of the Gaussian(R) 16 program.  It is based on
 the Gaussian(R) 09 system (copyright 2009, Gaussian, Inc.),
 the Gaussian(R) 03 system (copyright 2003, Gaussian, Inc.),
 the Gaussian(R) 98 system (copyright 1998, Gaussian, Inc.),
 the Gaussian(R) 94 system (copyright 1995, Gaussian, Inc.),
 the Gaussian 92(TM) system (copyright 1992, Gaussian, Inc.),
 the Gaussian 90(TM) system (copyright 1990, Gaussian, Inc.),
 the Gaussian 88(TM) system (copyright 1988, Gaussian, Inc.),
 the Gaussian 86(TM) system (copyright 1986, Carnegie Mellon
 University), and the Gaussian 82(TM) system (copyright 1983,
 Carnegie Mellon University). Gaussian is a federally registered
 trademark of Gaussian, Inc.
  
 This software contains proprietary and confidential information,
 including trade secrets, belonging to Gaussian, Inc.
  
 This software is provided under written license and may be
 used, copied, transmitted, or stored only in accord with that
 written license.
  
 The following legend is applicable only to US Government
 contracts under FAR:
  
                    RESTRICTED RIGHTS LEGEND
  
 Use, reproduction and disclosure by the US Government is
 subject to restrictions as set forth in subparagraphs (a)
 and (c) of the Commercial Computer Software - Restricted
 Rights clause in FAR 52.227-19.
  
 Gaussian, Inc.
 340 Quinnipiac St., Bldg. 40, Wallingford CT 06492
  
  
 ---------------------------------------------------------------
 Warning -- This program may not be used in any manner that
 competes with the business of Gaussian, Inc. or will provide
 assistance to any competitor of Gaussian, Inc.  The licensee
 of this program is prohibited from giving any competitor of
 Gaussian, Inc. access to this program.  By using this program,
 the user acknowledges that Gaussian, Inc. is engaged in the
 business of creating and licensing software in the field of
 computational chemistry and represents and warrants to the
 licensee that it is not a competitor of Gaussian, Inc. and that
 it will not use this program in any manner prohibited above.
 ---------------------------------------------------------------
  

 Cite this work as:
 Gaussian 16, Revision B.01,
 M. J. Frisch, G. W. Trucks, H. B. Schlegel, G. E. Scuseria, 
 M. A. Robb, J. R. Cheeseman, G. Scalmani, V. Barone, 
 G. A. Petersson, H. Nakatsuji, X. Li, M. Caricato, A. V. Marenich, 
 J. Bloino, B. G. Janesko, R. Gomperts, B. Mennucci, H. P. Hratchian, 
 J. V. Ortiz, A. F. Izmaylov, J. L. Sonnenberg, D. Williams-Young, 
 F. Ding, F. Lipparini, F. Egidi, J. Goings, B. Peng, A. Petrone, 
 T. Henderson, D. Ranasinghe, V. G. Zakrzewski, J. Gao, N. Rega, 
 G. Zheng, W. Liang, M. Hada, M. Ehara, K. Toyota, R. Fukuda, 
 J. Hasegawa, M. Ishida, T. Nakajima, Y. Honda, O. Kitao, H. Nakai, 
 T. Vreven, K. Throssell, J. A. Montgomery, Jr., J. E. Peralta, 
 F. Ogliaro, M. J. Bearpark, J. J. Heyd, E. N. Brothers, K. N. Kudin, 
 V. N. Staroverov, T. A. Keith, R. Kobayashi, J. Normand, 
 K. Raghavachari, A. P. Rendell, J. C. Burant, S. S. Iyengar, 
 J. Tomasi, M. Cossi, J. M. Millam, M. Klene, C. Adamo, R. Cammi, 
 J. W. Ochterski, R. L. Martin, K. Morokuma, O. Farkas, 
 J. B. Foresman, and D. J. Fox, Gaussian, Inc., Wallingford CT, 2016.
 
 ******************************************
 Gaussian 16:  ES64L-G16RevB.01 20-Dec-2017
                23-Nov-2023 
 ******************************************
 %nprocshared=14
 Will use up to   14 processors via shared memory.
 -------------------------
 #P B3LYP/6-311+g(d) force
 -------------------------
 1/10=7,30=1,38=1/1,3;
 2/12=2,17=6,18=5,40=1/2;
 3/5=4,6=6,7=11,11=2,25=1,30=1,71=1,74=-5/1,2,3;
 4//1;
 5/5=2,38=5/2;
 6/7=2,8=2,9=2,10=2,28=1/1;
 7/29=1/1,2,3,16;
 1/10=7,30=1/3;
 99//99;
 Leave Link    1 at Thu Nov 23 12:30:20 2023, MaxMem=           0 cpu:               0.5 elap:               0.3
 (Enter /home/sekinelabo/g16/l101.exe)
 -----
 DPGEN
 -----
 Symbolic Z-matrix:
 Charge =  0 Multiplicity = 2
 Na                    12.7154   1.00543   1.25504 
 Na                    11.008    3.00482   99.6982 
 Na                    8.8089    2.03135   1.78238 
 Na                    6.0358    0.022     3.66208 
 Na                    3.62478   1.76195   3.22606 
 Na                    0.35354   4.39639   0.8981 
 Na                    1.76255   5.93049   98.4458 
 
 ITRead=  0  0  0  0  0  0  0
 MicOpt= -1 -1 -1 -1 -1 -1 -1
 NAtoms=      7 NQM=        7 NQMF=       0 NMMI=      0 NMMIF=      0
                NMic=       0 NMicF=      0.
                    Isotopes and Nuclear Properties:
 (Nuclear quadrupole moments (NQMom) in fm**2, nuclear magnetic moments (NMagM)
  in nuclear magnetons)

  Atom         1           2           3           4           5           6           7
 IAtWgt=          23          23          23          23          23          23          23
 AtmWgt=  22.9897697  22.9897697  22.9897697  22.9897697  22.9897697  22.9897697  22.9897697
 NucSpn=           3           3           3           3           3           3           3
 AtZEff=  -0.0000000  -0.0000000  -0.0000000  -0.0000000  -0.0000000  -0.0000000  -0.0000000
 NQMom=   10.4000000  10.4000000  10.4000000  10.4000000  10.4000000  10.4000000  10.4000000
 NMagM=    2.2175200   2.2175200   2.2175200   2.2175200   2.2175200   2.2175200   2.2175200
 AtZNuc=  11.0000000  11.0000000  11.0000000  11.0000000  11.0000000  11.0000000  11.0000000
 Leave Link  101 at Thu Nov 23 12:30:22 2023, MaxMem=   104857600 cpu:               2.5 elap:               2.9
 (Enter /home/sekinelabo/g16/l103.exe)

 GradGradGradGradGradGradGradGradGradGradGradGradGradGradGradGradGradGrad
 Berny optimization.
 Initialization pass.
 Trust Radius=3.00D-01 FncErr=1.00D-07 GrdErr=1.00D-07 EigMax=2.50D+02 EigMin=1.00D-04
 Number of steps in this run=      2 maximum allowed number of steps=      2.
 GradGradGradGradGradGradGradGradGradGradGradGradGradGradGradGradGradGrad

 Leave Link  103 at Thu Nov 23 12:30:23 2023, MaxMem=   104857600 cpu:               0.5 elap:               0.5
 (Enter /home/sekinelabo/g16/l202.exe)
                          Input orientation:                          
 ---------------------------------------------------------------------
 Center     Atomic      Atomic             Coordinates (Angstroms)
 Number     Number       Type             X           Y           Z
 ---------------------------------------------------------------------
      1         11           0       12.715400    1.005430    1.255040
      2         11           0       11.008000    3.004820   99.698200
      3         11           0        8.808900    2.031350    1.782380
      4         11           0        6.035800    0.022000    3.662080
      5         11           0        3.624780    1.761950    3.226060
      6         11           0        0.353539    4.396390    0.898098
      7         11           0        1.762550    5.930490   98.445800
 ---------------------------------------------------------------------
                    Distance matrix (angstroms):
                    1          2          3          4          5
     1  Na   0.000000
     2  Na  98.478264   0.000000
     3  Na   4.073247  97.945350   0.000000
     4  Na   7.167847  96.210999   3.906513   0.000000
     5  Na   9.332557  96.762237   5.388125   3.005088   0.000000
     6  Na  12.823479  99.382665   8.824313   7.685244   4.802156
     7  Na  97.929898   9.777852  96.998305  95.063792  95.329133
                    6          7
     6  Na   0.000000
     7  Na  97.569939   0.000000
 Stoichiometry    Na7(2)
 Framework group  C1[X(Na7)]
 Deg. of freedom    15
 Full point group                 C1      NOp   1
 Largest Abelian subgroup         C1      NOp   1
 Largest concise Abelian subgroup C1      NOp   1
                         Standard orientation:                         
 ---------------------------------------------------------------------
 Center     Atomic      Atomic             Coordinates (Angstroms)
 Number     Number       Type             X           Y           Z
 ---------------------------------------------------------------------
      1         11           0      -28.623222   -6.414750   -0.821203
      2         11           0       69.836581   -4.824112    0.230185
      3         11           0      -28.072698   -2.378889   -0.811661
      4         11           0      -26.249752   -0.214878    1.881807
      5         11           0      -26.641810    2.560231    0.797547
      6         11           0      -28.902246    6.404669   -0.983301
      7         11           0       68.653147    4.867728   -0.293372
 ---------------------------------------------------------------------
 Rotational constants (GHZ):           0.1485202           0.0016358           0.0016196
 Leave Link  202 at Thu Nov 23 12:30:24 2023, MaxMem=   104857600 cpu:               0.8 elap:               0.9
 (Enter /home/sekinelabo/g16/l301.exe)
 Standard basis: 6-311+G(d) (5D, 7F)
 Ernie: Thresh=  0.10000D-02 Tol=  0.10000D-05 Strict=F.
 There are   217 symmetry adapted cartesian basis functions of A   symmetry.
 There are   210 symmetry adapted basis functions of A   symmetry.
   210 basis functions,   350 primitive gaussians,   217 cartesian basis functions
    39 alpha electrons       38 beta electrons
       nuclear repulsion energy       128.1494718663 Hartrees.
 IExCor=  402 DFT=T Ex+Corr=B3LYP ExCW=0 ScaHFX=  0.200000
 ScaDFX=  0.800000  0.720000  1.000000  0.810000 ScalE2=  1.000000  1.000000
 IRadAn=      5 IRanWt=     -1 IRanGd=            0 ICorTp=0 IEmpDi=  4
 NAtoms=    7 NActive=    7 NUniq=    7 SFac= 1.00D+00 NAtFMM=   60 NAOKFM=F Big=F
 Integral buffers will be    131072 words long.
 Raffenetti 2 integral format.
 Two-electron integral symmetry is turned on.
 Leave Link  301 at Thu Nov 23 12:30:25 2023, MaxMem=   104857600 cpu:               0.8 elap:               0.9
 (Enter /home/sekinelabo/g16/l302.exe)
 NPDir=0 NMtPBC=     1 NCelOv=     1 NCel=       1 NClECP=     1 NCelD=      1
         NCelK=      1 NCelE2=     1 NClLst=     1 CellRange=     0.0.
 One-electron integrals computed using PRISM.
 One-electron integral symmetry used in STVInt
 NBasis=   210 RedAO= T EigKep=  1.26D-05  NBF=   210
 NBsUse=   210 1.00D-06 EigRej= -1.00D+00 NBFU=   210
 Precomputing XC quadrature grid using
 IXCGrd= 4 IRadAn=           5 IRanWt=          -1 IRanGd=           0 AccXCQ= 0.00D+00.
 Generated NRdTot=       0 NPtTot=           0 NUsed=           0 NTot=          32
 NSgBfM=   140   140   140   140   140 MxSgAt=     7 MxSgA2=     5.
 Leave Link  302 at Thu Nov 23 12:31:02 2023, MaxMem=   104857600 cpu:              28.8 elap:              36.3
 (Enter /home/sekinelabo/g16/l303.exe)
 DipDrv:  MaxL=1.
 Leave Link  303 at Thu Nov 23 12:31:05 2023, MaxMem=   104857600 cpu:               2.5 elap:               3.1
 (Enter /home/sekinelabo/g16/l401.exe)
 ExpMin= 7.60D-03 ExpMax= 3.62D+04 ExpMxC= 1.21D+03 IAcc=3 IRadAn=         5 AccDes= 0.00D+00
 Harris functional with IExCor=  402 and IRadAn=       5 diagonalized for initial guess.
 HarFok:  IExCor=  402 AccDes= 0.00D+00 IRadAn=         5 IDoV= 1 UseB2=F ITyADJ=14
 ICtDFT=  3500011 ScaDFX=  1.000000  1.000000  1.000000  1.000000
 FoFCou: FMM=F IPFlag=           0 FMFlag=      100000 FMFlg1=           0
         NFxFlg=           0 DoJE=T BraDBF=F KetDBF=T FulRan=T
         wScrn=  0.000000 ICntrl=       500 IOpCl=  0 I1Cent=   200000004 NGrid=           0
         NMat0=    1 NMatS0=      1 NMatT0=    0 NMatD0=    1 NMtDS0=    0 NMtDT0=    0
 Petite list used in FoFCou.
 Harris En= -1135.81906425078    
 JPrj=0 DoOrth=F DoCkMO=F.
 Initial guess <Sx>= 0.0000 <Sy>= 0.0000 <Sz>= 0.5000 <S**2>= 0.7500 S= 0.5000
 Leave Link  401 at Thu Nov 23 12:31:25 2023, MaxMem=   104857600 cpu:              16.4 elap:              20.3
 (Enter /home/sekinelabo/g16/l502.exe)
 Integral symmetry usage will be decided dynamically.
 UHF open shell SCF:
 Using DIIS extrapolation, IDIIS=  1040.
 NGot=   104857600 LenX=   104758440 LenY=   104710910
 Requested convergence on RMS density matrix=1.00D-08 within 128 cycles.
 Requested convergence on MAX density matrix=1.00D-06.
 Requested convergence on             energy=1.00D-06.
 No special actions if energy rises.
 Fock matrices will be formed incrementally for  20 cycles.

 Cycle   1  Pass 1  IDiag  1:
 FoFJK:  IHMeth= 1 ICntrl=       0 DoSepK=F KAlg= 0 I1Cent=           0 FoldK=F
 IRaf= 500000000 NMat=       1 IRICut=       1 DoRegI=T DoRafI=F ISym2E= 0 IDoP0=0 IntGTp=1.
 FoFCou: FMM=F IPFlag=           0 FMFlag=      100000 FMFlg1=           0
         NFxFlg=           0 DoJE=F BraDBF=F KetDBF=F FulRan=T
         wScrn=  0.000000 ICntrl=         0 IOpCl=  1 I1Cent=           0 NGrid=           0
         NMat0=    1 NMatS0=      1 NMatT0=    0 NMatD0=    1 NMtDS0=    0 NMtDT0=    0
 Symmetry not used in FoFCou.
 E= -1135.89726019404    
 DIIS: error= 2.13D-02 at cycle   1 NSaved=   1.
 NSaved= 1 IEnMin= 1 EnMin= -1135.89726019404     IErMin= 1 ErrMin= 2.13D-02
 ErrMax= 2.13D-02  0.00D+00 EMaxC= 1.00D-01 BMatC= 1.93D-01 BMatP= 1.93D-01
 IDIUse=3 WtCom= 7.87D-01 WtEn= 2.13D-01
 Coeff-Com:  0.100D+01
 Coeff-En:   0.100D+01
 Coeff:      0.100D+01
 Gap=     0.011 Goal=   None    Shift=    0.000
 Gap=    -0.210 Goal=   None    Shift=    0.000
 GapD=   -0.210 DampG=0.250 DampE=0.500 DampFc=0.2500 IDamp=-1.
 Damping current iteration by 2.50D-01
 RMSDP=9.84D-03 MaxDP=9.49D-01              OVMax= 1.00D+00

 Cycle   2  Pass 1  IDiag  1:
 RMSU=  2.40D-03    CP:  9.73D-01
 E= -1135.88234723930     Delta-E=        0.014912954739 Rises=F Damp=T
 DIIS: error= 1.24D-02 at cycle   2 NSaved=   2.
 NSaved= 2 IEnMin= 1 EnMin= -1135.89726019404     IErMin= 2 ErrMin= 1.24D-02
 ErrMax= 1.24D-02  0.00D+00 EMaxC= 1.00D-01 BMatC= 7.47D-02 BMatP= 1.93D-01
 IDIUse=3 WtCom= 8.76D-01 WtEn= 1.24D-01
 Coeff-Com: -0.799D+00 0.180D+01
 Coeff-En:   0.532D+00 0.468D+00
 Coeff:     -0.634D+00 0.163D+01
 Gap=     0.013 Goal=   None    Shift=    0.000
 Gap=     0.018 Goal=   None    Shift=    0.000
 RMSDP=8.80D-03 MaxDP=5.57D-01 DE= 1.49D-02 OVMax= 1.00D+00

 Cycle   3  Pass 1  IDiag  1:
 RMSU=  8.47D-03    CP:  9.88D-01  1.03D-02
 E= -1135.23887267135     Delta-E=        0.643474567947 Rises=F Damp=F
 DIIS: error= 1.98D-02 at cycle   3 NSaved=   3.
 NSaved= 3 IEnMin= 1 EnMin= -1135.89726019404     IErMin= 2 ErrMin= 1.24D-02
 ErrMax= 1.98D-02  0.00D+00 EMaxC= 1.00D-01 BMatC= 2.13D-01 BMatP= 7.47D-02
 IDIUse=2 WtCom= 0.00D+00 WtEn= 1.00D+00
 Rare condition: small coef for last iteration:  0.000D+00
 Coeff-En:   0.436D+00 0.466D+00 0.983D-01
 Coeff:      0.436D+00 0.466D+00 0.983D-01
 Gap=     0.017 Goal=   None    Shift=    0.000
 Gap=     0.016 Goal=   None    Shift=    0.000
 RMSDP=1.09D-02 MaxDP=6.89D-01 DE= 6.43D-01 OVMax= 1.00D+00

 Cycle   4  Pass 1  IDiag  1:
 RMSU=  3.76D-03    CP:  9.20D-01  2.61D+00  5.56D-02
 E= -1135.52731509733     Delta-E=       -0.288442425977 Rises=F Damp=F
 DIIS: error= 1.35D-02 at cycle   4 NSaved=   4.
 NSaved= 4 IEnMin= 1 EnMin= -1135.89726019404     IErMin= 2 ErrMin= 1.24D-02
 ErrMax= 1.35D-02  0.00D+00 EMaxC= 1.00D-01 BMatC= 1.01D-01 BMatP= 7.47D-02
 IDIUse=2 WtCom= 0.00D+00 WtEn= 1.00D+00
 EnCoef did   100 forward-backward iterations
 Coeff-En:   0.676D+00 0.873D-02 0.128D-02 0.314D+00
 Coeff:      0.676D+00 0.873D-02 0.128D-02 0.314D+00
 Gap=     0.100 Goal=   None    Shift=    0.000
 Gap=     0.026 Goal=   None    Shift=    0.000
 RMSDP=5.80D-03 MaxDP=6.75D-01 DE=-2.88D-01 OVMax= 9.98D-01

 Cycle   5  Pass 1  IDiag  1:
 RMSU=  3.47D-03    CP:  9.66D-01  9.48D-01  4.60D-02  4.14D-01
 E= -1136.04722506244     Delta-E=       -0.519909965113 Rises=F Damp=F
 DIIS: error= 4.94D-03 at cycle   5 NSaved=   5.
 NSaved= 5 IEnMin= 5 EnMin= -1136.04722506244     IErMin= 5 ErrMin= 4.94D-03
 ErrMax= 4.94D-03  0.00D+00 EMaxC= 1.00D-01 BMatC= 3.12D-02 BMatP= 7.47D-02
 IDIUse=3 WtCom= 9.51D-01 WtEn= 4.94D-02
 Coeff-Com:  0.201D+00 0.864D-01-0.221D-01 0.112D-01 0.723D+00
 Coeff-En:   0.000D+00 0.000D+00 0.000D+00 0.000D+00 0.100D+01
 Coeff:      0.191D+00 0.821D-01-0.210D-01 0.107D-01 0.737D+00
 Gap=     0.049 Goal=   None    Shift=    0.000
 Gap=     0.034 Goal=   None    Shift=    0.000
 RMSDP=2.02D-03 MaxDP=1.45D-01 DE=-5.20D-01 OVMax= 1.92D-01

 Cycle   6  Pass 1  IDiag  1:
 RMSU=  1.80D-03    CP:  9.56D-01  1.16D+00  1.31D-02  4.62D-01  8.07D-01
 E= -1136.05768044969     Delta-E=       -0.010455387250 Rises=F Damp=F
 DIIS: error= 7.86D-04 at cycle   6 NSaved=   6.
 NSaved= 6 IEnMin= 6 EnMin= -1136.05768044969     IErMin= 6 ErrMin= 7.86D-04
 ErrMax= 7.86D-04  0.00D+00 EMaxC= 1.00D-01 BMatC= 9.04D-04 BMatP= 3.12D-02
 IDIUse=3 WtCom= 9.92D-01 WtEn= 7.86D-03
 Coeff-Com:  0.459D-01-0.531D-01 0.638D-02 0.381D-02 0.138D+00 0.859D+00
 Coeff-En:   0.000D+00 0.000D+00 0.000D+00 0.000D+00 0.000D+00 0.100D+01
 Coeff:      0.455D-01-0.527D-01 0.633D-02 0.378D-02 0.137D+00 0.860D+00
 Gap=     0.025 Goal=   None    Shift=    0.000
 Gap=     0.035 Goal=   None    Shift=    0.000
 RMSDP=4.87D-04 MaxDP=5.64D-02 DE=-1.05D-02 OVMax= 5.46D-02

 Cycle   7  Pass 1  IDiag  1:
 RMSU=  3.98D-04    CP:  9.54D-01  1.19D+00  1.27D-02  4.65D-01  7.81D-01
                    CP:  1.14D+00
 E= -1136.05802201262     Delta-E=       -0.000341562935 Rises=F Damp=F
 DIIS: error= 1.05D-03 at cycle   7 NSaved=   7.
 NSaved= 7 IEnMin= 7 EnMin= -1136.05802201262     IErMin= 6 ErrMin= 7.86D-04
 ErrMax= 1.05D-03  0.00D+00 EMaxC= 1.00D-01 BMatC= 1.97D-04 BMatP= 9.04D-04
 IDIUse=3 WtCom= 9.92D-01 WtEn= 7.86D-03
 Coeff-Com:  0.347D-01-0.432D-01 0.440D-02 0.538D-02 0.622D-01 0.371D+00
 Coeff-Com:  0.565D+00
 Coeff-En:   0.000D+00 0.000D+00 0.000D+00 0.000D+00 0.000D+00 0.000D+00
 Coeff-En:   0.100D+01
 Coeff:      0.344D-01-0.429D-01 0.437D-02 0.534D-02 0.617D-01 0.368D+00
 Coeff:      0.569D+00
 Gap=     0.032 Goal=   None    Shift=    0.000
 Gap=     0.043 Goal=   None    Shift=    0.000
 RMSDP=3.74D-04 MaxDP=2.02D-02 DE=-3.42D-04 OVMax= 6.65D-02

 Cycle   8  Pass 1  IDiag  1:
 RMSU=  3.43D-04    CP:  9.54D-01  1.20D+00  1.83D-02  4.82D-01  7.81D-01
                    CP:  1.08D+00  1.17D+00
 E= -1136.05847044162     Delta-E=       -0.000448428995 Rises=F Damp=F
 DIIS: error= 4.70D-04 at cycle   8 NSaved=   8.
 NSaved= 8 IEnMin= 8 EnMin= -1136.05847044162     IErMin= 8 ErrMin= 4.70D-04
 ErrMax= 4.70D-04  0.00D+00 EMaxC= 1.00D-01 BMatC= 6.35D-05 BMatP= 1.97D-04
 IDIUse=3 WtCom= 9.95D-01 WtEn= 4.70D-03
 Coeff-Com:  0.229D-01-0.294D-01-0.261D-03-0.176D-02 0.201D-01 0.269D-01
 Coeff-Com:  0.262D+00 0.700D+00
 Coeff-En:   0.000D+00 0.000D+00 0.000D+00 0.000D+00 0.000D+00 0.000D+00
 Coeff-En:   0.000D+00 0.100D+01
 Coeff:      0.228D-01-0.293D-01-0.260D-03-0.175D-02 0.200D-01 0.268D-01
 Coeff:      0.261D+00 0.701D+00
 Gap=     0.032 Goal=   None    Shift=    0.000
 Gap=     0.045 Goal=   None    Shift=    0.000
 RMSDP=2.02D-04 MaxDP=1.45D-02 DE=-4.48D-04 OVMax= 3.42D-02

 Cycle   9  Pass 1  IDiag  1:
 RMSU=  1.44D-04    CP:  9.53D-01  1.21D+00  2.41D-02  4.83D-01  7.70D-01
                    CP:  1.13D+00  1.38D+00  9.25D-01
 E= -1136.05862681252     Delta-E=       -0.000156370901 Rises=F Damp=F
 DIIS: error= 2.30D-04 at cycle   9 NSaved=   9.
 NSaved= 9 IEnMin= 9 EnMin= -1136.05862681252     IErMin= 9 ErrMin= 2.30D-04
 ErrMax= 2.30D-04  0.00D+00 EMaxC= 1.00D-01 BMatC= 2.38D-05 BMatP= 6.35D-05
 IDIUse=3 WtCom= 9.98D-01 WtEn= 2.30D-03
 Coeff-Com:  0.915D-02-0.123D-01-0.144D-02-0.358D-02-0.744D-03-0.765D-01
 Coeff-Com:  0.120D-01 0.390D+00 0.683D+00
 Coeff-En:   0.000D+00 0.000D+00 0.000D+00 0.000D+00 0.000D+00 0.000D+00
 Coeff-En:   0.000D+00 0.000D+00 0.100D+01
 Coeff:      0.913D-02-0.122D-01-0.143D-02-0.358D-02-0.742D-03-0.763D-01
 Coeff:      0.120D-01 0.390D+00 0.684D+00
 Gap=     0.033 Goal=   None    Shift=    0.000
 Gap=     0.050 Goal=   None    Shift=    0.000
 RMSDP=1.34D-04 MaxDP=1.45D-02 DE=-1.56D-04 OVMax= 1.91D-02

 Cycle  10  Pass 1  IDiag  1:
 RMSU=  1.07D-04    CP:  9.53D-01  1.21D+00  2.34D-02  4.88D-01  7.64D-01
                    CP:  1.15D+00  1.47D+00  1.10D+00  1.08D+00
 E= -1136.05868842514     Delta-E=       -0.000061612621 Rises=F Damp=F
 DIIS: error= 2.43D-04 at cycle  10 NSaved=  10.
 NSaved=10 IEnMin=10 EnMin= -1136.05868842514     IErMin= 9 ErrMin= 2.30D-04
 ErrMax= 2.43D-04  0.00D+00 EMaxC= 1.00D-01 BMatC= 9.75D-06 BMatP= 2.38D-05
 IDIUse=3 WtCom= 9.98D-01 WtEn= 2.30D-03
 Coeff-Com:  0.448D-02-0.608D-02-0.573D-03-0.217D-02-0.348D-02-0.604D-01
 Coeff-Com: -0.497D-01 0.298D-01 0.367D+00 0.721D+00
 Coeff-En:   0.000D+00 0.000D+00 0.000D+00 0.000D+00 0.000D+00 0.000D+00
 Coeff-En:   0.000D+00 0.000D+00 0.000D+00 0.100D+01
 Coeff:      0.447D-02-0.607D-02-0.572D-03-0.216D-02-0.348D-02-0.603D-01
 Coeff:     -0.496D-01 0.297D-01 0.366D+00 0.722D+00
 Gap=     0.034 Goal=   None    Shift=    0.000
 Gap=     0.047 Goal=   None    Shift=    0.000
 RMSDP=8.26D-05 MaxDP=8.04D-03 DE=-6.16D-05 OVMax= 1.73D-02

 Cycle  11  Pass 1  IDiag  1:
 RMSU=  6.49D-05    CP:  9.53D-01  1.20D+00  2.37D-02  4.85D-01  7.64D-01
                    CP:  1.15D+00  1.55D+00  1.13D+00  1.27D+00  1.23D+00
 E= -1136.05873204197     Delta-E=       -0.000043616826 Rises=F Damp=F
 DIIS: error= 9.68D-05 at cycle  11 NSaved=  11.
 NSaved=11 IEnMin=11 EnMin= -1136.05873204197     IErMin=11 ErrMin= 9.68D-05
 ErrMax= 9.68D-05  0.00D+00 EMaxC= 1.00D-01 BMatC= 2.92D-06 BMatP= 9.75D-06
 IDIUse=1 WtCom= 1.00D+00 WtEn= 0.00D+00
 Coeff-Com:  0.215D-02-0.272D-02-0.232D-03-0.145D-02 0.888D-03-0.184D-01
 Coeff-Com: -0.157D-01-0.303D-01-0.191D-01 0.235D+00 0.850D+00
 Coeff:      0.215D-02-0.272D-02-0.232D-03-0.145D-02 0.888D-03-0.184D-01
 Coeff:     -0.157D-01-0.303D-01-0.191D-01 0.235D+00 0.850D+00
 Gap=     0.034 Goal=   None    Shift=    0.000
 Gap=     0.047 Goal=   None    Shift=    0.000
 RMSDP=6.46D-05 MaxDP=7.50D-03 DE=-4.36D-05 OVMax= 1.17D-02

 Cycle  12  Pass 1  IDiag  1:
 RMSU=  2.99D-05    CP:  9.53D-01  1.20D+00  2.41D-02  4.83D-01  7.64D-01
                    CP:  1.15D+00  1.57D+00  1.16D+00  1.41D+00  1.59D+00
                    CP:  1.50D+00
 E= -1136.05875963945     Delta-E=       -0.000027597483 Rises=F Damp=F
 DIIS: error= 9.68D-05 at cycle  12 NSaved=  12.
 NSaved=12 IEnMin=12 EnMin= -1136.05875963945     IErMin=12 ErrMin= 9.68D-05
 ErrMax= 9.68D-05  0.00D+00 EMaxC= 1.00D-01 BMatC= 1.74D-06 BMatP= 2.92D-06
 IDIUse=1 WtCom= 1.00D+00 WtEn= 0.00D+00
 Coeff-Com:  0.628D-03-0.787D-03-0.197D-04-0.124D-02 0.318D-02 0.740D-02
 Coeff-Com:  0.231D-02-0.116D-01-0.903D-01-0.102D+00 0.613D-01 0.113D+01
 Coeff:      0.628D-03-0.787D-03-0.197D-04-0.124D-02 0.318D-02 0.740D-02
 Coeff:      0.231D-02-0.116D-01-0.903D-01-0.102D+00 0.613D-01 0.113D+01
 Gap=     0.034 Goal=   None    Shift=    0.000
 Gap=     0.047 Goal=   None    Shift=    0.000
 RMSDP=7.89D-05 MaxDP=8.60D-03 DE=-2.76D-05 OVMax= 1.49D-02

 Cycle  13  Pass 1  IDiag  1:
 RMSU=  8.34D-06    CP:  9.53D-01  1.20D+00  2.46D-02  4.81D-01  7.64D-01
                    CP:  1.15D+00  1.58D+00  1.17D+00  1.57D+00  1.97D+00
                    CP:  2.14D+00  2.53D+00
 E= -1136.05879058688     Delta-E=       -0.000030947432 Rises=F Damp=F
 DIIS: error= 8.52D-05 at cycle  13 NSaved=  13.
 NSaved=13 IEnMin=13 EnMin= -1136.05879058688     IErMin=13 ErrMin= 8.52D-05
 ErrMax= 8.52D-05  0.00D+00 EMaxC= 1.00D-01 BMatC= 1.27D-06 BMatP= 1.74D-06
 IDIUse=1 WtCom= 1.00D+00 WtEn= 0.00D+00
 Coeff-Com: -0.196D-02 0.261D-02-0.989D-04-0.539D-03-0.196D-02-0.131D-01
 Coeff-Com: -0.184D-01 0.943D-01 0.133D+00-0.149D+00-0.870D+00-0.112D+01
 Coeff-Com:  0.294D+01
 Coeff:     -0.196D-02 0.261D-02-0.989D-04-0.539D-03-0.196D-02-0.131D-01
 Coeff:     -0.184D-01 0.943D-01 0.133D+00-0.149D+00-0.870D+00-0.112D+01
 Coeff:      0.294D+01
 Gap=     0.034 Goal=   None    Shift=    0.000
 Gap=     0.048 Goal=   None    Shift=    0.000
 RMSDP=2.23D-04 MaxDP=2.49D-02 DE=-3.09D-05 OVMax= 4.21D-02

 Cycle  14  Pass 1  IDiag  1:
 RMSU=  1.41D-04    CP:  9.53D-01  1.20D+00  2.66D-02  4.75D-01  7.65D-01
                    CP:  1.15D+00  1.62D+00  1.21D+00  2.03D+00  2.90D+00
                    CP:  3.00D+00  3.00D+00  3.00D+00
 E= -1136.05885780397     Delta-E=       -0.000067217085 Rises=F Damp=F
 DIIS: error= 5.39D-05 at cycle  14 NSaved=  14.
 NSaved=14 IEnMin=14 EnMin= -1136.05885780397     IErMin=14 ErrMin= 5.39D-05
 ErrMax= 5.39D-05  0.00D+00 EMaxC= 1.00D-01 BMatC= 6.28D-07 BMatP= 1.27D-06
 IDIUse=1 WtCom= 1.00D+00 WtEn= 0.00D+00
 Coeff-Com: -0.324D-02 0.440D-02-0.217D-03 0.736D-04-0.322D-02-0.847D-02
 Coeff-Com: -0.519D-02 0.579D-01 0.889D-01 0.116D+00-0.376D+00-0.100D+01
 Coeff-Com:  0.479D+00 0.165D+01
 Coeff:     -0.324D-02 0.440D-02-0.217D-03 0.736D-04-0.322D-02-0.847D-02
 Coeff:     -0.519D-02 0.579D-01 0.889D-01 0.116D+00-0.376D+00-0.100D+01
 Coeff:      0.479D+00 0.165D+01
 Gap=     0.035 Goal=   None    Shift=    0.000
 Gap=     0.049 Goal=   None    Shift=    0.000
 RMSDP=2.25D-04 MaxDP=2.66D-02 DE=-6.72D-05 OVMax= 4.06D-02

 Cycle  15  Pass 1  IDiag  1:
 RMSU=  9.83D-05    CP:  9.53D-01  1.20D+00  2.90D-02  4.68D-01  7.66D-01
                    CP:  1.14D+00  1.64D+00  1.24D+00  2.44D+00  3.00D+00
                    CP:  3.00D+00  3.00D+00  3.00D+00  2.30D+00
 E= -1136.05888526972     Delta-E=       -0.000027465756 Rises=F Damp=F
 DIIS: error= 2.41D-05 at cycle  15 NSaved=  15.
 NSaved=15 IEnMin=15 EnMin= -1136.05888526972     IErMin=15 ErrMin= 2.41D-05
 ErrMax= 2.41D-05  0.00D+00 EMaxC= 1.00D-01 BMatC= 2.58D-07 BMatP= 6.28D-07
 IDIUse=1 WtCom= 1.00D+00 WtEn= 0.00D+00
 Coeff-Com: -0.158D-02 0.216D-02-0.832D-04 0.189D-03-0.174D-02-0.181D-02
 Coeff-Com:  0.369D-02 0.104D-01-0.410D-02 0.404D-01 0.862D-01-0.545D-01
 Coeff-Com: -0.963D-01 0.543D-01 0.963D+00
 Coeff:     -0.158D-02 0.216D-02-0.832D-04 0.189D-03-0.174D-02-0.181D-02
 Coeff:      0.369D-02 0.104D-01-0.410D-02 0.404D-01 0.862D-01-0.545D-01
 Coeff:     -0.963D-01 0.543D-01 0.963D+00
 Gap=     0.035 Goal=   None    Shift=    0.000
 Gap=     0.049 Goal=   None    Shift=    0.000
 RMSDP=2.08D-05 MaxDP=2.38D-03 DE=-2.75D-05 OVMax= 3.50D-03

 Cycle  16  Pass 1  IDiag  1:
 RMSU=  7.33D-06    CP:  9.53D-01  1.20D+00  2.87D-02  4.69D-01  7.66D-01
                    CP:  1.14D+00  1.64D+00  1.23D+00  2.39D+00  3.00D+00
                    CP:  3.00D+00  3.00D+00  3.00D+00  2.21D+00  8.73D-01
 E= -1136.05888518665     Delta-E=        0.000000083080 Rises=F Damp=F
 DIIS: error= 2.76D-05 at cycle  16 NSaved=  16.
 NSaved=16 IEnMin=15 EnMin= -1136.05888526972     IErMin=15 ErrMin= 2.41D-05
 ErrMax= 2.76D-05  0.00D+00 EMaxC= 1.00D-01 BMatC= 1.07D-07 BMatP= 2.58D-07
 IDIUse=1 WtCom= 1.00D+00 WtEn= 0.00D+00
 Coeff-Com: -0.124D-02 0.167D-02-0.215D-04 0.121D-03-0.135D-02-0.213D-02
 Coeff-Com:  0.472D-02 0.117D-02-0.129D-01 0.275D-01 0.632D-01 0.655D-02
 Coeff-Com: -0.363D-01-0.179D+00 0.321D+00 0.807D+00
 Coeff:     -0.124D-02 0.167D-02-0.215D-04 0.121D-03-0.135D-02-0.213D-02
 Coeff:      0.472D-02 0.117D-02-0.129D-01 0.275D-01 0.632D-01 0.655D-02
 Coeff:     -0.363D-01-0.179D+00 0.321D+00 0.807D+00
 Gap=     0.035 Goal=   None    Shift=    0.000
 Gap=     0.049 Goal=   None    Shift=    0.000
 RMSDP=1.28D-05 MaxDP=1.40D-03 DE= 8.31D-08 OVMax= 2.18D-03

 Cycle  17  Pass 1  IDiag  1:
 RMSU=  4.87D-06    CP:  9.53D-01  1.20D+00  2.86D-02  4.69D-01  7.66D-01
                    CP:  1.14D+00  1.64D+00  1.23D+00  2.41D+00  3.00D+00
                    CP:  3.00D+00  3.00D+00  3.00D+00  2.28D+00  9.38D-01
                    CP:  9.80D-01
 E= -1136.05888564556     Delta-E=       -0.000000458918 Rises=F Damp=F
 DIIS: error= 1.44D-05 at cycle  17 NSaved=  17.
 NSaved=17 IEnMin=17 EnMin= -1136.05888564556     IErMin=17 ErrMin= 1.44D-05
 ErrMax= 1.44D-05  0.00D+00 EMaxC= 1.00D-01 BMatC= 4.16D-08 BMatP= 1.07D-07
 IDIUse=1 WtCom= 1.00D+00 WtEn= 0.00D+00
 Coeff-Com: -0.479D-03 0.610D-03 0.175D-04 0.289D-05-0.184D-03 0.127D-02
 Coeff-Com:  0.167D-02-0.113D-01-0.546D-02 0.509D-02 0.508D-01 0.337D-01
 Coeff-Com: -0.418D-01-0.139D+00-0.208D+00-0.315D+00 0.163D+01
 Coeff:     -0.479D-03 0.610D-03 0.175D-04 0.289D-05-0.184D-03 0.127D-02
 Coeff:      0.167D-02-0.113D-01-0.546D-02 0.509D-02 0.508D-01 0.337D-01
 Coeff:     -0.418D-01-0.139D+00-0.208D+00-0.315D+00 0.163D+01
 Gap=     0.035 Goal=   None    Shift=    0.000
 Gap=     0.049 Goal=   None    Shift=    0.000
 RMSDP=1.31D-05 MaxDP=1.24D-03 DE=-4.59D-07 OVMax= 2.20D-03

 Cycle  18  Pass 1  IDiag  1:
 RMSU=  2.34D-06    CP:  9.53D-01  1.20D+00  2.85D-02  4.68D-01  7.66D-01
                    CP:  1.14D+00  1.64D+00  1.24D+00  2.42D+00  3.00D+00
                    CP:  3.00D+00  3.00D+00  3.00D+00  2.35D+00  9.95D-01
                    CP:  1.38D+00  1.83D+00
 E= -1136.05888590503     Delta-E=       -0.000000259471 Rises=F Damp=F
 DIIS: error= 5.27D-06 at cycle  18 NSaved=  18.
 NSaved=18 IEnMin=18 EnMin= -1136.05888590503     IErMin=18 ErrMin= 5.27D-06
 ErrMax= 5.27D-06  0.00D+00 EMaxC= 1.00D-01 BMatC= 5.59D-09 BMatP= 4.16D-08
 IDIUse=1 WtCom= 1.00D+00 WtEn= 0.00D+00
 Coeff-Com: -0.195D-03 0.255D-03 0.680D-05 0.181D-04-0.136D-03 0.217D-03
 Coeff-Com:  0.742D-03-0.504D-02 0.426D-02 0.469D-02 0.120D-01-0.132D-01
 Coeff-Com: -0.396D-01 0.280D-01-0.118D+00-0.263D+00 0.524D+00 0.865D+00
 Coeff:     -0.195D-03 0.255D-03 0.680D-05 0.181D-04-0.136D-03 0.217D-03
 Coeff:      0.742D-03-0.504D-02 0.426D-02 0.469D-02 0.120D-01-0.132D-01
 Coeff:     -0.396D-01 0.280D-01-0.118D+00-0.263D+00 0.524D+00 0.865D+00
 Gap=     0.035 Goal=   None    Shift=    0.000
 Gap=     0.049 Goal=   None    Shift=    0.000
 RMSDP=9.12D-06 MaxDP=9.07D-04 DE=-2.59D-07 OVMax= 1.70D-03

 Cycle  19  Pass 1  IDiag  1:
 RMSU=  7.28D-07    CP:  9.53D-01  1.20D+00  2.86D-02  4.68D-01  7.66D-01
                    CP:  1.14D+00  1.65D+00  1.24D+00  2.43D+00  3.00D+00
                    CP:  3.00D+00  3.00D+00  3.00D+00  2.40D+00  1.04D+00
                    CP:  1.40D+00  2.17D+00  1.33D+00
 E= -1136.05888594461     Delta-E=       -0.000000039577 Rises=F Damp=F
 DIIS: error= 1.38D-06 at cycle  19 NSaved=  19.
 NSaved=19 IEnMin=19 EnMin= -1136.05888594461     IErMin=19 ErrMin= 1.38D-06
 ErrMax= 1.38D-06  0.00D+00 EMaxC= 1.00D-01 BMatC= 1.03D-09 BMatP= 5.59D-09
 IDIUse=1 WtCom= 1.00D+00 WtEn= 0.00D+00
 Coeff-Com: -0.339D-04 0.461D-04 0.427D-05-0.276D-05-0.491D-04-0.816D-04
 Coeff-Com: -0.281D-03 0.120D-03 0.244D-02-0.122D-02-0.440D-02-0.457D-02
 Coeff-Com:  0.102D-01 0.962D-02-0.187D-01-0.251D-01-0.104D+00 0.280D+00
 Coeff-Com:  0.856D+00
 Coeff:     -0.339D-04 0.461D-04 0.427D-05-0.276D-05-0.491D-04-0.816D-04
 Coeff:     -0.281D-03 0.120D-03 0.244D-02-0.122D-02-0.440D-02-0.457D-02
 Coeff:      0.102D-01 0.962D-02-0.187D-01-0.251D-01-0.104D+00 0.280D+00
 Coeff:      0.856D+00
 Gap=     0.035 Goal=   None    Shift=    0.000
 Gap=     0.049 Goal=   None    Shift=    0.000
 RMSDP=2.11D-06 MaxDP=2.65D-04 DE=-3.96D-08 OVMax= 3.41D-04

 Cycle  20  Pass 1  IDiag  1:
 RMSU=  3.60D-07    CP:  9.53D-01  1.20D+00  2.85D-02  4.68D-01  7.66D-01
                    CP:  1.14D+00  1.65D+00  1.24D+00  2.43D+00  3.00D+00
                    CP:  3.00D+00  3.00D+00  3.00D+00  2.39D+00  1.03D+00
                    CP:  1.46D+00  2.22D+00  1.49D+00  1.29D+00
 E= -1136.05888594753     Delta-E=       -0.000000002915 Rises=F Damp=F
 DIIS: error= 4.81D-07 at cycle  20 NSaved=  20.
 NSaved=20 IEnMin=20 EnMin= -1136.05888594753     IErMin=20 ErrMin= 4.81D-07
 ErrMax= 4.81D-07  0.00D+00 EMaxC= 1.00D-01 BMatC= 6.07D-11 BMatP= 1.03D-09
 IDIUse=1 WtCom= 1.00D+00 WtEn= 0.00D+00
 Coeff-Com: -0.161D-04 0.221D-04 0.153D-05-0.125D-05-0.241D-04-0.113D-03
 Coeff-Com: -0.121D-03 0.999D-03-0.150D-03-0.203D-03-0.210D-02-0.162D-02
 Coeff-Com:  0.442D-02 0.131D-02 0.164D-01 0.310D-01-0.882D-01-0.380D-01
 Coeff-Com:  0.735D-01 0.100D+01
 Coeff:     -0.161D-04 0.221D-04 0.153D-05-0.125D-05-0.241D-04-0.113D-03
 Coeff:     -0.121D-03 0.999D-03-0.150D-03-0.203D-03-0.210D-02-0.162D-02
 Coeff:      0.442D-02 0.131D-02 0.164D-01 0.310D-01-0.882D-01-0.380D-01
 Coeff:      0.735D-01 0.100D+01
 Gap=     0.035 Goal=   None    Shift=    0.000
 Gap=     0.049 Goal=   None    Shift=    0.000
 RMSDP=4.85D-07 MaxDP=4.64D-05 DE=-2.91D-09 OVMax= 9.00D-05

 Cycle  21  Pass 1  IDiag  1:
 Restarting incremental Fock formation.
 E= -1136.05888594791     Delta-E=       -0.000000000387 Rises=F Damp=F
 DIIS: error= 1.71D-07 at cycle  21 NSaved=  20.
 NSaved=20 IEnMin=20 EnMin= -1136.05888594791     IErMin=20 ErrMin= 1.71D-07
 ErrMax= 1.71D-07  0.00D+00 EMaxC= 1.00D-01 BMatC= 1.09D-11 BMatP= 6.07D-11
 IDIUse=1 WtCom= 1.00D+00 WtEn= 0.00D+00
 Coeff-Com: -0.416D-05 0.489D-05-0.404D-07 0.203D-05-0.525D-05 0.500D-04
 Coeff-Com: -0.236D-04-0.189D-03 0.460D-04 0.475D-03-0.131D-03 0.496D-03
 Coeff-Com: -0.434D-02 0.341D-02-0.183D-03 0.349D-01-0.551D-01-0.194D+00
 Coeff-Com: -0.819D-01 0.130D+01
 Coeff:     -0.416D-05 0.489D-05-0.404D-07 0.203D-05-0.525D-05 0.500D-04
 Coeff:     -0.236D-04-0.189D-03 0.460D-04 0.475D-03-0.131D-03 0.496D-03
 Coeff:     -0.434D-02 0.341D-02-0.183D-03 0.349D-01-0.551D-01-0.194D+00
 Coeff:     -0.819D-01 0.130D+01
 Gap=     0.035 Goal=   None    Shift=    0.000
 Gap=     0.049 Goal=   None    Shift=    0.000
 RMSDP=2.47D-07 MaxDP=1.66D-05 DE=-3.87D-10 OVMax= 3.38D-05

 Cycle  22  Pass 1  IDiag  1:
 RMSU=  2.47D-07    CP:  1.00D+00
 E= -1136.05888594798     Delta-E=       -0.000000000072 Rises=F Damp=F
 DIIS: error= 8.39D-08 at cycle  22 NSaved=  20.
 NSaved=20 IEnMin=20 EnMin= -1136.05888594798     IErMin=20 ErrMin= 8.39D-08
 ErrMax= 8.39D-08  0.00D+00 EMaxC= 1.00D-01 BMatC= 1.82D-12 BMatP= 1.09D-11
 IDIUse=1 WtCom= 1.00D+00 WtEn= 0.00D+00
 Coeff-Com:  0.328D-06-0.494D-06 0.206D-06 0.442D-05-0.175D-05-0.856D-04
 Coeff-Com:  0.440D-04 0.901D-04-0.215D-03 0.371D-03 0.516D-03-0.755D-03
 Coeff-Com: -0.293D-02-0.278D-02 0.979D-02 0.141D-02 0.137D-01-0.172D+00
 Coeff-Com:  0.366D-01 0.112D+01
 Coeff:      0.328D-06-0.494D-06 0.206D-06 0.442D-05-0.175D-05-0.856D-04
 Coeff:      0.440D-04 0.901D-04-0.215D-03 0.371D-03 0.516D-03-0.755D-03
 Coeff:     -0.293D-02-0.278D-02 0.979D-02 0.141D-02 0.137D-01-0.172D+00
 Coeff:      0.366D-01 0.112D+01
 Gap=     0.035 Goal=   None    Shift=    0.000
 Gap=     0.049 Goal=   None    Shift=    0.000
 RMSDP=1.42D-07 MaxDP=1.34D-05 DE=-7.19D-11 OVMax= 2.47D-05

 Cycle  23  Pass 1  IDiag  1:
 RMSU=  1.41D-07    CP:  1.00D+00  9.54D-01
 E= -1136.05888594800     Delta-E=       -0.000000000013 Rises=F Damp=F
 DIIS: error= 2.50D-08 at cycle  23 NSaved=  20.
 NSaved=20 IEnMin=20 EnMin= -1136.05888594800     IErMin=20 ErrMin= 2.50D-08
 ErrMax= 2.50D-08  0.00D+00 EMaxC= 1.00D-01 BMatC= 2.08D-13 BMatP= 1.82D-12
 IDIUse=1 WtCom= 1.00D+00 WtEn= 0.00D+00
 Coeff-Com:  0.264D-07-0.584D-06 0.921D-06-0.988D-05-0.155D-04 0.671D-04
 Coeff-Com:  0.317D-04-0.164D-03-0.292D-04-0.112D-03 0.681D-03-0.801D-03
 Coeff-Com: -0.168D-02-0.825D-03 0.654D-02 0.246D-01-0.339D-01-0.135D+00
 Coeff-Com:  0.234D+00 0.907D+00
 Coeff:      0.264D-07-0.584D-06 0.921D-06-0.988D-05-0.155D-04 0.671D-04
 Coeff:      0.317D-04-0.164D-03-0.292D-04-0.112D-03 0.681D-03-0.801D-03
 Coeff:     -0.168D-02-0.825D-03 0.654D-02 0.246D-01-0.339D-01-0.135D+00
 Coeff:      0.234D+00 0.907D+00
 Gap=     0.035 Goal=   None    Shift=    0.000
 Gap=     0.049 Goal=   None    Shift=    0.000
 RMSDP=6.55D-08 MaxDP=6.98D-06 DE=-1.32D-11 OVMax= 1.17D-05

 Cycle  24  Pass 1  IDiag  1:
 RMSU=  2.12D-08    CP:  1.00D+00  1.13D+00  6.79D-01
 E= -1136.05888594799     Delta-E=        0.000000000005 Rises=F Damp=F
 DIIS: error= 7.83D-09 at cycle  24 NSaved=  20.
 NSaved=20 IEnMin=19 EnMin= -1136.05888594800     IErMin=20 ErrMin= 7.83D-09
 ErrMax= 7.83D-09  0.00D+00 EMaxC= 1.00D-01 BMatC= 2.10D-14 BMatP= 2.08D-13
 IDIUse=1 WtCom= 1.00D+00 WtEn= 0.00D+00
 Coeff-Com: -0.262D-06-0.219D-05-0.399D-05 0.208D-04 0.646D-05-0.229D-04
 Coeff-Com: -0.246D-05-0.681D-04 0.418D-04 0.492D-04 0.296D-03 0.317D-03
 Coeff-Com: -0.128D-02 0.522D-03 0.101D-02 0.180D-01-0.184D-01-0.125D+00
 Coeff-Com:  0.962D-01 0.103D+01
 Coeff:     -0.262D-06-0.219D-05-0.399D-05 0.208D-04 0.646D-05-0.229D-04
 Coeff:     -0.246D-05-0.681D-04 0.418D-04 0.492D-04 0.296D-03 0.317D-03
 Coeff:     -0.128D-02 0.522D-03 0.101D-02 0.180D-01-0.184D-01-0.125D+00
 Coeff:      0.962D-01 0.103D+01
 Gap=     0.035 Goal=   None    Shift=    0.000
 Gap=     0.049 Goal=   None    Shift=    0.000
 RMSDP=8.87D-09 MaxDP=6.11D-07 DE= 4.55D-12 OVMax= 1.19D-06

 SCF Done:  E(UB3LYP) =  -1136.05888595     A.U. after   24 cycles
            NFock= 24  Conv=0.89D-08     -V/T= 2.0029
 <Sx>= 0.0000 <Sy>= 0.0000 <Sz>= 0.5000 <S**2>= 1.8713 S= 0.9565
 <L.S>= 0.000000000000E+00
 KE= 1.132766657529D+03 PE=-2.984577174768D+03 EE= 5.876021594241D+02
 Annihilation of the first spin contaminant:
 S**2 before annihilation     1.8713,   after     1.1545
 Leave Link  502 at Thu Nov 23 12:42:29 2023, MaxMem=   104857600 cpu:             635.0 elap:             663.7
 (Enter /home/sekinelabo/g16/l601.exe)
 Copying SCF densities to generalized density rwf, IOpCl= 1 IROHF=0.

 **********************************************************************

            Population analysis using the SCF Density.

 **********************************************************************

 Orbital symmetries:
 Alpha Orbitals:
       Occupied  (A) (A) (A) (A) (A) (A) (A) (A) (A) (A) (A) (A)
                 (A) (A) (A) (A) (A) (A) (A) (A) (A) (A) (A) (A)
                 (A) (A) (A) (A) (A) (A) (A) (A) (A) (A) (A) (A)
                 (A) (A) (A)
       Virtual   (A) (A) (A) (A) (A) (A) (A) (A) (A) (A) (A) (A)
                 (A) (A) (A) (A) (A) (A) (A) (A) (A) (A) (A) (A)
                 (A) (A) (A) (A) (A) (A) (A) (A) (A) (A) (A) (A)
                 (A) (A) (A) (A) (A) (A) (A) (A) (A) (A) (A) (A)
                 (A) (A) (A) (A) (A) (A) (A) (A) (A) (A) (A) (A)
                 (A) (A) (A) (A) (A) (A) (A) (A) (A) (A) (A) (A)
                 (A) (A) (A) (A) (A) (A) (A) (A) (A) (A) (A) (A)
                 (A) (A) (A) (A) (A) (A) (A) (A) (A) (A) (A) (A)
                 (A) (A) (A) (A) (A) (A) (A) (A) (A) (A) (A) (A)
                 (A) (A) (A) (A) (A) (A) (A) (A) (A) (A) (A) (A)
                 (A) (A) (A) (A) (A) (A) (A) (A) (A) (A) (A) (A)
                 (A) (A) (A) (A) (A) (A) (A) (A) (A) (A) (A) (A)
                 (A) (A) (A) (A) (A) (A) (A) (A) (A) (A) (A) (A)
                 (A) (A) (A) (A) (A) (A) (A) (A) (A) (A) (A) (A)
                 (A) (A) (A)
 Beta  Orbitals:
       Occupied  (A) (A) (A) (A) (A) (A) (A) (A) (A) (A) (A) (A)
                 (A) (A) (A) (A) (A) (A) (A) (A) (A) (A) (A) (A)
                 (A) (A) (A) (A) (A) (A) (A) (A) (A) (A) (A) (A)
                 (A) (A)
       Virtual   (A) (A) (A) (A) (A) (A) (A) (A) (A) (A) (A) (A)
                 (A) (A) (A) (A) (A) (A) (A) (A) (A) (A) (A) (A)
                 (A) (A) (A) (A) (A) (A) (A) (A) (A) (A) (A) (A)
                 (A) (A) (A) (A) (A) (A) (A) (A) (A) (A) (A) (A)
                 (A) (A) (A) (A) (A) (A) (A) (A) (A) (A) (A) (A)
                 (A) (A) (A) (A) (A) (A) (A) (A) (A) (A) (A) (A)
                 (A) (A) (A) (A) (A) (A) (A) (A) (A) (A) (A) (A)
                 (A) (A) (A) (A) (A) (A) (A) (A) (A) (A) (A) (A)
                 (A) (A) (A) (A) (A) (A) (A) (A) (A) (A) (A) (A)
                 (A) (A) (A) (A) (A) (A) (A) (A) (A) (A) (A) (A)
                 (A) (A) (A) (A) (A) (A) (A) (A) (A) (A) (A) (A)
                 (A) (A) (A) (A) (A) (A) (A) (A) (A) (A) (A) (A)
                 (A) (A) (A) (A) (A) (A) (A) (A) (A) (A) (A) (A)
                 (A) (A) (A) (A) (A) (A) (A) (A) (A) (A) (A) (A)
                 (A) (A) (A) (A)
 The electronic state is 2-A.
 Alpha  occ. eigenvalues --  -38.46123 -38.45770 -38.45770 -38.44925 -38.44772
 Alpha  occ. eigenvalues --  -38.44754 -38.44627  -2.21753  -2.21556  -2.21555
 Alpha  occ. eigenvalues --   -2.20652  -2.20553  -2.20446  -2.20423  -1.15473
 Alpha  occ. eigenvalues --   -1.15473  -1.15458  -1.15168  -1.15168  -1.15168
 Alpha  occ. eigenvalues --   -1.15168  -1.15168  -1.15168  -1.14334  -1.14329
 Alpha  occ. eigenvalues --   -1.14293  -1.14239  -1.14209  -1.14205  -1.14143
 Alpha  occ. eigenvalues --   -1.14143  -1.14091  -1.14086  -1.14068  -1.14025
 Alpha  occ. eigenvalues --   -0.14436  -0.12821  -0.12779  -0.11636
 Alpha virt. eigenvalues --   -0.08122  -0.06523  -0.04892  -0.03108  -0.02628
 Alpha virt. eigenvalues --   -0.02349  -0.02175  -0.02175  -0.02070  -0.02008
 Alpha virt. eigenvalues --   -0.02008  -0.01721  -0.01648  -0.01090  -0.00831
 Alpha virt. eigenvalues --   -0.00678  -0.00343   0.00039   0.00401   0.00537
 Alpha virt. eigenvalues --    0.00605   0.00613   0.00696   0.00974   0.01054
 Alpha virt. eigenvalues --    0.01238   0.01271   0.01271   0.01405   0.01568
 Alpha virt. eigenvalues --    0.01579   0.01579   0.01636   0.01756   0.01839
 Alpha virt. eigenvalues --    0.01926   0.01936   0.02004   0.02050   0.02415
 Alpha virt. eigenvalues --    0.02624   0.02679   0.02798   0.02941   0.03115
 Alpha virt. eigenvalues --    0.03282   0.03515   0.03536   0.03933   0.04168
 Alpha virt. eigenvalues --    0.04707   0.05483   0.07045   0.07173   0.07320
 Alpha virt. eigenvalues --    0.07320   0.07357   0.07587   0.07616   0.07755
 Alpha virt. eigenvalues --    0.07755   0.08162   0.08174   0.08201   0.08369
 Alpha virt. eigenvalues --    0.08527   0.08626   0.08818   0.09292   0.09385
 Alpha virt. eigenvalues --    0.09467   0.09507   0.10076   0.10121   0.10876
 Alpha virt. eigenvalues --    0.11900   0.12699   0.13046   0.13919   0.16342
 Alpha virt. eigenvalues --    0.28893   0.29243   0.29985   0.30728   0.32375
 Alpha virt. eigenvalues --    0.33124   0.33219   0.33226   0.33226   0.33226
 Alpha virt. eigenvalues --    0.33226   0.33229   0.33229   0.33232   0.33232
 Alpha virt. eigenvalues --    0.33232   0.33301   0.34548   0.34717   0.34804
 Alpha virt. eigenvalues --    0.34975   0.34987   0.35460   0.35806   0.35837
 Alpha virt. eigenvalues --    0.36310   0.37318   0.38488   0.38613   0.40686
 Alpha virt. eigenvalues --    0.41680   0.41815   0.41815   0.42072   0.42162
 Alpha virt. eigenvalues --    0.42162   0.42357   0.42386   0.42433   0.43122
 Alpha virt. eigenvalues --    0.43419   0.44104   0.44179   0.44274   0.44919
 Alpha virt. eigenvalues --    0.45106   0.45365   0.45619   0.46688   0.48767
 Alpha virt. eigenvalues --    0.48844   0.49799   0.50741   0.51751   0.52736
 Alpha virt. eigenvalues --    0.71661   1.98658   1.99409   2.00245   2.03047
 Alpha virt. eigenvalues --    2.06095   2.07938   2.15243   4.41688   4.42613
 Alpha virt. eigenvalues --    4.42715   4.42715   4.42768   4.42810   4.42978
 Alpha virt. eigenvalues --    4.42978   4.43205   4.43323   4.43660   4.44135
 Alpha virt. eigenvalues --    4.44146   4.44488   4.44609   4.44914   4.45383
 Alpha virt. eigenvalues --    4.45990   4.47089   4.49790   4.65028  96.17688
 Alpha virt. eigenvalues --   96.18563  96.19005  96.22332  96.26067  96.28122
 Alpha virt. eigenvalues --   96.38138
  Beta  occ. eigenvalues --  -38.46290 -38.45584 -38.45584 -38.44883 -38.44836
  Beta  occ. eigenvalues --  -38.44729 -38.44653  -2.22065  -2.21210  -2.21209
  Beta  occ. eigenvalues --   -2.20574  -2.20565  -2.20503  -2.20472  -1.15684
  Beta  occ. eigenvalues --   -1.15684  -1.15669  -1.14933  -1.14933  -1.14933
  Beta  occ. eigenvalues --   -1.14933  -1.14933  -1.14933  -1.14295  -1.14278
  Beta  occ. eigenvalues --   -1.14273  -1.14226  -1.14226  -1.14197  -1.14175
  Beta  occ. eigenvalues --   -1.14169  -1.14168  -1.14119  -1.14096  -1.14035
  Beta  occ. eigenvalues --   -0.14559  -0.13145  -0.11804
  Beta virt. eigenvalues --   -0.06860  -0.06333  -0.06257  -0.05229  -0.03207
  Beta virt. eigenvalues --   -0.02896  -0.02457  -0.02203  -0.02003  -0.01448
  Beta virt. eigenvalues --   -0.01232  -0.00473  -0.00409  -0.00297  -0.00297
  Beta virt. eigenvalues --    0.00059   0.00060   0.00217   0.00258   0.00520
  Beta virt. eigenvalues --    0.00592   0.00728   0.00756   0.00923   0.00972
  Beta virt. eigenvalues --    0.01136   0.01325   0.01346   0.01556   0.01615
  Beta virt. eigenvalues --    0.01770   0.01814   0.01843   0.01880   0.02125
  Beta virt. eigenvalues --    0.02126   0.02279   0.02340   0.02341   0.02503
  Beta virt. eigenvalues --    0.02561   0.02675   0.02689   0.02750   0.02921
  Beta virt. eigenvalues --    0.03000   0.03260   0.03424   0.03457   0.03855
  Beta virt. eigenvalues --    0.04172   0.04705   0.05282   0.07106   0.07162
  Beta virt. eigenvalues --    0.07413   0.07549   0.07740   0.08001   0.08202
  Beta virt. eigenvalues --    0.08242   0.08385   0.08677   0.08831   0.08832
  Beta virt. eigenvalues --    0.08952   0.09190   0.09228   0.09270   0.09271
  Beta virt. eigenvalues --    0.09535   0.09554   0.09969   0.10091   0.10732
  Beta virt. eigenvalues --    0.10782   0.11757   0.12420   0.13139   0.13876
  Beta virt. eigenvalues --    0.16248   0.28863   0.29189   0.29934   0.30687
  Beta virt. eigenvalues --    0.32081   0.33000   0.33044   0.33096   0.33109
  Beta virt. eigenvalues --    0.33470   0.33550   0.34603   0.34972   0.35229
  Beta virt. eigenvalues --    0.35325   0.35325   0.35325   0.35325   0.35327
  Beta virt. eigenvalues --    0.35327   0.35329   0.35330   0.35330   0.35391
  Beta virt. eigenvalues --    0.35809   0.36375   0.36695   0.38442   0.38488
  Beta virt. eigenvalues --    0.40673   0.41651   0.41758   0.41831   0.42932
  Beta virt. eigenvalues --    0.43234   0.43234   0.43246   0.43495   0.43589
  Beta virt. eigenvalues --    0.43589   0.43767   0.43892   0.43998   0.44085
  Beta virt. eigenvalues --    0.44808   0.45192   0.45312   0.45609   0.46741
  Beta virt. eigenvalues --    0.48757   0.48828   0.49752   0.50784   0.51785
  Beta virt. eigenvalues --    0.52810   0.71676   1.99529   1.99991   2.00276
  Beta virt. eigenvalues --    2.02496   2.06030   2.08011   2.15223   4.41663
  Beta virt. eigenvalues --    4.42404   4.42543   4.43032   4.43032   4.43127
  Beta virt. eigenvalues --    4.43258   4.43295   4.43295   4.43520   4.43647
  Beta virt. eigenvalues --    4.44061   4.44073   4.44452   4.44656   4.44760
  Beta virt. eigenvalues --    4.45431   4.45994   4.47056   4.49810   4.65022
  Beta virt. eigenvalues --   96.17957  96.18832  96.18931  96.22149  96.26042
  Beta virt. eigenvalues --   96.28141  96.38130
          Condensed to atoms (all electrons):
               1          2          3          4          5          6
     1  Na  10.710885   0.000000   0.275446  -0.038043  -0.018011  -0.003513
     2  Na   0.000000  11.004118   0.000000   0.000000   0.000000   0.000000
     3  Na   0.275446   0.000000  10.948143  -0.035328  -0.018385  -0.018084
     4  Na  -0.038043   0.000000  -0.035328  10.635783   0.189430  -0.077799
     5  Na  -0.018011   0.000000  -0.018385   0.189430  11.010953   0.097316
     6  Na  -0.003513   0.000000  -0.018084  -0.077799   0.097316  10.988178
     7  Na   0.000000  -0.004118   0.000000   0.000000   0.000000   0.000000
               7
     1  Na   0.000000
     2  Na  -0.004118
     3  Na   0.000000
     4  Na   0.000000
     5  Na   0.000000
     6  Na   0.000000
     7  Na  11.004118
          Atomic-Atomic Spin Densities.
               1          2          3          4          5          6
     1  Na  -0.300943   0.000000  -0.033787   0.014681  -0.004982   0.001268
     2  Na   0.000000   1.003750   0.000000   0.000000   0.000000   0.000000
     3  Na  -0.033787   0.000000   0.267376   0.018980  -0.059583  -0.000444
     4  Na   0.014681   0.000000   0.018980  -0.184290  -0.011416   0.046494
     5  Na  -0.004982   0.000000  -0.059583  -0.011416   0.239063  -0.029952
     6  Na   0.001268   0.000000  -0.000444   0.046494  -0.029952  -0.903723
     7  Na   0.000000  -0.003750   0.000000   0.000000   0.000000   0.000000
               7
     1  Na   0.000000
     2  Na  -0.003750
     3  Na   0.000000
     4  Na   0.000000
     5  Na   0.000000
     6  Na   0.000000
     7  Na   1.003750
 Mulliken charges and spin densities:
               1          2
     1  Na   0.073235  -0.323763
     2  Na  -0.000000   1.000000
     3  Na  -0.151792   0.192542
     4  Na   0.325957  -0.115551
     5  Na  -0.261303   0.133129
     6  Na   0.013903  -0.886357
     7  Na   0.000000   1.000000
 Sum of Mulliken charges =  -0.00000   1.00000
 Mulliken charges and spin densities with hydrogens summed into heavy atoms:
               1          2
     1  Na   0.073235  -0.323763
     2  Na  -0.000000   1.000000
     3  Na  -0.151792   0.192542
     4  Na   0.325957  -0.115551
     5  Na  -0.261303   0.133129
     6  Na   0.013903  -0.886357
     7  Na   0.000000   1.000000
 Electronic spatial extent (au):  <R**2>=         533600.3879
 Charge=             -0.0000 electrons
 Dipole moment (field-independent basis, Debye):
    X=             -0.0121    Y=              1.3160    Z=              0.1233  Tot=              1.3218
 Quadrupole moment (field-independent basis, Debye-Ang):
   XX=            -75.4351   YY=            -60.7762   ZZ=            -74.2570
   XY=            -39.0254   XZ=             -0.5579   YZ=             -4.5653
 Traceless Quadrupole moment (field-independent basis, Debye-Ang):
   XX=             -5.2790   YY=              9.3799   ZZ=             -4.1009
   XY=            -39.0254   XZ=             -0.5579   YZ=             -4.5653
 Octapole moment (field-independent basis, Debye-Ang**2):
  XXX=           -344.2497  YYY=            -14.3521  ZZZ=             14.0610  XYY=           -564.1591
  XXY=           1159.0842  XXZ=            -59.1906  XZZ=           -151.5488  YZZ=              1.1576
  YYZ=            -17.5860  XYZ=            125.0470
 Hexadecapole moment (field-independent basis, Debye-Ang**3):
 XXXX=        -902851.5966 YYYY=          -8172.4331 ZZZZ=           -711.0405 XXXY=         -34492.2325
 XXXZ=           3597.6120 YYYX=            404.4683 YYYZ=            -31.2136 ZZZX=           -354.8848
 ZZZY=            -46.5382 XXYY=        -138691.6254 XXZZ=        -149615.7832 YYZZ=          -1742.8328
 XXYZ=          -3440.5754 YYXZ=            536.6057 ZZXY=            -53.5360
 N-N= 1.281494718663D+02 E-N=-2.984577174462D+03  KE= 1.132766657529D+03
                          Isotropic Fermi Contact Couplings
        Atom                 a.u.       MegaHertz       Gauss      10(-4) cm-1
     1  Na(23)            -0.27971    -330.90618    -118.07556    -110.37842
     2  Na(23)             0.79348     938.71355     334.95634     313.12114
     3  Na(23)             0.19442     230.00621      82.07193      76.72181
     4  Na(23)            -0.13182    -155.94939     -55.64662     -52.01912
     5  Na(23)             0.14043     166.13016      59.27937      55.41506
     6  Na(23)            -0.71146    -841.67311    -300.32990    -280.75193
     7  Na(23)             0.79348     938.71355     334.95634     313.12114
 --------------------------------------------------------
       Center         ----  Spin Dipole Couplings  ----
                      3XX-RR        3YY-RR        3ZZ-RR
 --------------------------------------------------------
     1   Atom       -0.002220      0.004631     -0.002411
     2   Atom       -0.000153      0.000311     -0.000158
     3   Atom        0.004508     -0.008804      0.004296
     4   Atom       -0.006618      0.013073     -0.006455
     5   Atom        0.009302     -0.018147      0.008845
     6   Atom       -0.000189      0.000456     -0.000267
     7   Atom       -0.000153      0.000311     -0.000158
 --------------------------------------------------------
                        XY            XZ            YZ
 --------------------------------------------------------
     1   Atom        0.001157      0.000029      0.000296
     2   Atom       -0.000058      0.000003     -0.000025
     3   Atom       -0.004807     -0.001764     -0.004807
     4   Atom        0.004279      0.001510      0.004597
     5   Atom        0.009613     -0.003470      0.011996
     6   Atom       -0.000599      0.000316     -0.000504
     7   Atom       -0.000058      0.000003     -0.000025
 --------------------------------------------------------


 ---------------------------------------------------------------------------------
              Anisotropic Spin Dipole Couplings in Principal Axis System
 ---------------------------------------------------------------------------------

       Atom             a.u.   MegaHertz   Gauss  10(-4) cm-1        Axes

              Baa    -0.0024    -0.344    -0.123    -0.115  0.5611 -0.1261  0.8181
     1 Na(23) Bbb    -0.0024    -0.338    -0.121    -0.113  0.8118 -0.1095 -0.5736
              Bcc     0.0048     0.683     0.244     0.228  0.1619  0.9860  0.0409
 
              Baa    -0.0002    -0.023    -0.008    -0.008  0.9924  0.1218  0.0147
     2 Na(23) Bbb    -0.0002    -0.023    -0.008    -0.008 -0.0211  0.0513  0.9985
              Bcc     0.0003     0.045     0.016     0.015 -0.1209  0.9912 -0.0535
 
              Baa    -0.0120    -1.690    -0.603    -0.564  0.2966  0.9066  0.3001
     3 Na(23) Bbb     0.0058     0.816     0.291     0.272  0.4520 -0.4101  0.7921
              Bcc     0.0062     0.874     0.312     0.292  0.8412 -0.0993 -0.5315
 
              Baa    -0.0080    -1.137    -0.406    -0.379  0.7161  0.0069 -0.6980
     4 Na(23) Bbb    -0.0070    -0.987    -0.352    -0.329  0.6676 -0.2986  0.6820
              Bcc     0.0150     2.124     0.758     0.708  0.2038  0.9543  0.2184
 
              Baa    -0.0257    -3.628    -1.295    -1.210 -0.2803  0.8977 -0.3400
     5 Na(23) Bbb     0.0123     1.732     0.618     0.578  0.9500  0.2087 -0.2323
              Bcc     0.0134     1.896     0.677     0.633  0.1376  0.3881  0.9113
 
              Baa    -0.0006    -0.078    -0.028    -0.026  0.8556  0.2953 -0.4251
     6 Na(23) Bbb    -0.0005    -0.074    -0.026    -0.025  0.2136  0.5467  0.8096
              Bcc     0.0011     0.152     0.054     0.051 -0.4715  0.7835 -0.4047
 
              Baa    -0.0002    -0.023    -0.008    -0.008  0.9925  0.1218  0.0137
     7 Na(23) Bbb    -0.0002    -0.023    -0.008    -0.008 -0.0201  0.0515  0.9985
              Bcc     0.0003     0.045     0.016     0.015 -0.1210  0.9912 -0.0535
 

 ---------------------------------------------------------------------------------

 No NMR shielding tensors so no spin-rotation constants.
 Leave Link  601 at Thu Nov 23 12:42:38 2023, MaxMem=   104857600 cpu:              17.2 elap:               8.7
 (Enter /home/sekinelabo/g16/l701.exe)
 ... and contract with generalized density number  0.
 Compute integral first derivatives.
 Leave Link  701 at Thu Nov 23 12:42:42 2023, MaxMem=   104857600 cpu:               7.3 elap:               3.6
 (Enter /home/sekinelabo/g16/l702.exe)
 L702 exits ... SP integral derivatives will be done elsewhere.
 Leave Link  702 at Thu Nov 23 12:42:42 2023, MaxMem=   104857600 cpu:               0.6 elap:               0.4
 (Enter /home/sekinelabo/g16/l703.exe)
 Integral derivatives from FoFJK, PRISM(SPDF).
 Compute integral first derivatives, UseDBF=F ICtDFT=           0.
 Calling FoFJK, ICntrl=      2127 FMM=F ISym2X=0 I1Cent= 0 IOpClX= 1 NMat=1 NMatS=1 NMatT=0.
 FoFJK:  IHMeth= 1 ICntrl=    2127 DoSepK=F KAlg= 0 I1Cent=           0 FoldK=F
 IRaf=         0 NMat=       1 IRICut=       1 DoRegI=T DoRafI=F ISym2E= 0 IDoP0=0 IntGTp=1.
 FoFCou: FMM=F IPFlag=           0 FMFlag=      100000 FMFlg1=         800
         NFxFlg=           0 DoJE=F BraDBF=F KetDBF=F FulRan=T
         wScrn=  0.000000 ICntrl=      2127 IOpCl=  1 I1Cent=           0 NGrid=           0
         NMat0=    1 NMatS0=      1 NMatT0=    0 NMatD0=    1 NMtDS0=    0 NMtDT0=    0
 Symmetry not used in FoFCou.
 Leave Link  703 at Thu Nov 23 12:42:51 2023, MaxMem=   104857600 cpu:              22.6 elap:               9.0
 (Enter /home/sekinelabo/g16/l716.exe)
 Dipole        =-4.76343895D-03 5.17741284D-01 4.85162580D-02
 ***** Axes restored to original set *****
 -------------------------------------------------------------------
 Center     Atomic                   Forces (Hartrees/Bohr)
 Number     Number              X              Y              Z
 -------------------------------------------------------------------
      1       11          -0.006640496    0.001723536    0.000917275
      2       11           0.000002749   -0.000000845    0.000000396
      3       11           0.004662767   -0.002722875    0.000178159
      4       11           0.003665909   -0.000750533   -0.000432752
      5       11          -0.003032138    0.002881047   -0.001700495
      6       11           0.001343958   -0.001131174    0.001037813
      7       11          -0.000002749    0.000000845   -0.000000396
 -------------------------------------------------------------------
 Cartesian Forces:  Max     0.006640496 RMS     0.002348593
 Z-matrix is all fixed cartesians, so copy forces.
 Force constants in Cartesian coordinates: 
                1             2             3             4             5 
      1  0.904408D-02
      2 -0.179145D-02  0.365786D-02
      3 -0.152443D-02 -0.147662D-02  0.130014D-02
      4  0.000000D+00  0.000000D+00  0.000000D+00  0.100000D+01
      5  0.000000D+00  0.000000D+00  0.000000D+00  0.000000D+00  0.100000D+01
      6  0.000000D+00  0.000000D+00  0.000000D+00  0.000000D+00  0.000000D+00
      7 -0.859726D-02  0.425880D-02  0.343038D-04  0.000000D+00  0.000000D+00
      8  0.130208D-02 -0.634219D-02  0.307370D-02  0.000000D+00  0.000000D+00
      9  0.166050D-02  0.224720D-02 -0.179127D-02  0.000000D+00  0.000000D+00
     10 -0.450190D-03 -0.247399D-02  0.147807D-02  0.000000D+00  0.000000D+00
     11  0.481285D-03  0.266843D-02 -0.162600D-02  0.000000D+00  0.000000D+00
     12 -0.149678D-03 -0.797363D-03  0.442432D-03  0.000000D+00  0.000000D+00
     13  0.336937D-05  0.663119D-05  0.120594D-04  0.000000D+00  0.000000D+00
     14  0.807862D-05  0.158993D-04  0.289143D-04  0.000000D+00  0.000000D+00
     15  0.136066D-04  0.267789D-04  0.486996D-04  0.000000D+00  0.000000D+00
     16  0.000000D+00  0.000000D+00  0.000000D+00  0.000000D+00  0.000000D+00
     17  0.000000D+00  0.000000D+00  0.000000D+00  0.000000D+00  0.000000D+00
     18  0.000000D+00  0.000000D+00  0.000000D+00  0.000000D+00  0.000000D+00
     19  0.000000D+00  0.000000D+00  0.000000D+00  0.000000D+00  0.000000D+00
     20  0.000000D+00  0.000000D+00  0.000000D+00  0.000000D+00  0.000000D+00
     21  0.000000D+00  0.000000D+00  0.000000D+00  0.000000D+00  0.000000D+00
                6             7             8             9            10 
      6  0.100000D+01
      7  0.000000D+00  0.180665D-01
      8  0.000000D+00 -0.388680D-02  0.166850D-01
      9  0.000000D+00 -0.271201D-02 -0.818148D-02  0.545023D-02
     10  0.000000D+00 -0.721966D-02  0.268552D-03  0.189436D-02  0.315625D-01
     11  0.000000D+00  0.222622D-02 -0.129994D-01  0.692752D-02 -0.146924D-01
     12  0.000000D+00  0.606707D-03  0.731387D-02 -0.435603D-02  0.752768D-03
     13  0.000000D+00 -0.224958D-02  0.231617D-02 -0.842852D-03 -0.238927D-01
     14  0.000000D+00 -0.259822D-02  0.265664D-02 -0.993243D-03  0.168979D-01
     15  0.000000D+00  0.207100D-02 -0.220609D-02  0.697075D-03 -0.412520D-02
     16  0.000000D+00  0.000000D+00  0.000000D+00  0.000000D+00  0.000000D+00
     17  0.000000D+00  0.000000D+00  0.000000D+00  0.000000D+00  0.000000D+00
     18  0.000000D+00  0.000000D+00  0.000000D+00  0.000000D+00  0.000000D+00
     19  0.000000D+00  0.000000D+00  0.000000D+00  0.000000D+00  0.000000D+00
     20  0.000000D+00  0.000000D+00  0.000000D+00  0.000000D+00  0.000000D+00
     21  0.000000D+00  0.000000D+00  0.000000D+00  0.000000D+00  0.000000D+00
               11            12            13            14            15 
     11  0.285907D-01
     12 -0.131482D-01  0.759328D-02
     13  0.119849D-01 -0.120980D-02  0.261389D-01
     14 -0.182597D-01  0.663169D-02 -0.143077D-01  0.155871D-01
     15  0.784667D-02 -0.367968D-02  0.204059D-02 -0.566736D-02  0.293391D-02
     16  0.000000D+00  0.000000D+00  0.000000D+00  0.000000D+00  0.000000D+00
     17  0.000000D+00  0.000000D+00  0.000000D+00  0.000000D+00  0.000000D+00
     18  0.000000D+00  0.000000D+00  0.000000D+00  0.000000D+00  0.000000D+00
     19  0.000000D+00  0.000000D+00  0.000000D+00  0.000000D+00  0.000000D+00
     20  0.000000D+00  0.000000D+00  0.000000D+00  0.000000D+00  0.000000D+00
     21  0.000000D+00  0.000000D+00  0.000000D+00  0.000000D+00  0.000000D+00
               16            17            18            19            20 
     16  0.100000D+01
     17  0.000000D+00  0.100000D+01
     18  0.000000D+00  0.000000D+00  0.100000D+01
     19  0.000000D+00  0.000000D+00  0.000000D+00  0.100000D+01
     20  0.000000D+00  0.000000D+00  0.000000D+00  0.000000D+00  0.100000D+01
     21  0.000000D+00  0.000000D+00  0.000000D+00  0.000000D+00  0.000000D+00
               21 
     21  0.100000D+01
 Leave Link  716 at Thu Nov 23 12:42:51 2023, MaxMem=   104857600 cpu:               0.6 elap:               0.3
 (Enter /home/sekinelabo/g16/l103.exe)

 GradGradGradGradGradGradGradGradGradGradGradGradGradGradGradGradGradGrad
 Berny optimization.
 Search for a local minimum.
 Step number   1 out of a maximum of    2
 All quantities printed in internal units (Hartrees-Bohrs-Radians)
 Second derivative matrix not updated -- first step.
 ITU=  0
     Eigenvalues ---    0.00018   0.00030   0.00263   0.00746   0.01169
     Eigenvalues ---    0.02660   0.03924   0.08133   0.28276   0.57143
     Eigenvalues ---    0.79435   0.91054   1.00000   1.00000   1.00000
 Quadratic step=1.997D+00 exceeds max=3.000D-01 adjusted using Lamda=-1.363D-02.
 Angle between NR and scaled steps=  64.36 degrees.
 Angle between quadratic step and forces=  27.08 degrees.
 Linear search not attempted -- first point.
 B after Tr=    -0.000000   -0.000000    0.000000
         Rot=    1.000000    0.000000    0.000000    0.000000 Ang=   0.00 deg.
 Variable       Old X    -DE/DX   Delta X   Delta X   Delta X     New X
                                 (Linear)    (Quad)   (Total)
    X1       24.02862  -0.00664   0.00000  -0.22448  -0.22448  23.80414
    Y1        1.89999   0.00172   0.00000   0.04683   0.04683   1.94682
    Z1        2.37168   0.00092   0.00000   0.06230   0.06230   2.43398
    X2       20.80211   0.00000   0.00000   0.00184   0.00184  20.80394
    Y2        5.67829  -0.00000   0.00000   0.00020   0.00020   5.67849
    Z2      188.40229   0.00000   0.00000   0.00019   0.00019 188.40248
    X3       16.64641   0.00466   0.00000   0.11075   0.11075  16.75716
    Y3        3.83870  -0.00272   0.00000  -0.07272  -0.07272   3.76598
    Z3        3.36821   0.00018   0.00000   0.02092   0.02092   3.38913
    X4       11.40601   0.00367   0.00000   0.09416   0.09416  11.50016
    Y4        0.04157  -0.00075   0.00000  -0.00402  -0.00402   0.03755
    Z4        6.92033  -0.00043   0.00000  -0.00995  -0.00995   6.91038
    X5        6.84984  -0.00303   0.00000   0.01482   0.01482   6.86466
    Y5        3.32960   0.00288   0.00000   0.03228   0.03228   3.36188
    Z5        6.09637  -0.00170   0.00000  -0.07519  -0.07519   6.02118
    X6        0.66809   0.00134   0.00000   0.00135   0.00135   0.66944
    Y6        8.30797  -0.00113   0.00000  -0.00201  -0.00201   8.30596
    Z6        1.69716   0.00104   0.00000   0.00139   0.00139   1.69855
    X7        3.33074  -0.00000   0.00000   0.00157   0.00157   3.33230
    Y7       11.20700   0.00000   0.00000  -0.00057  -0.00057  11.20643
    Z7      186.03560  -0.00000   0.00000   0.00034   0.00034 186.03594
         Item               Value     Threshold  Converged?
 Maximum Force            0.006640     0.000450     NO 
 RMS     Force            0.002349     0.000300     NO 
 Maximum Displacement     0.224479     0.001800     NO 
 RMS     Displacement     0.065598     0.001200     NO 
 Predicted change in Energy=-2.056295D-03
 GradGradGradGradGradGradGradGradGradGradGradGradGradGradGradGradGradGrad

 Leave Link  103 at Thu Nov 23 12:42:53 2023, MaxMem=   104857600 cpu:               4.0 elap:               1.6
 (Enter /home/sekinelabo/g16/l9999.exe)
 1\1\GINC-SEKINELABO-XA7R-R37\Force\UB3LYP\6-311+G(d)\Na7(2)\SEKINELABO
 \23-Nov-2023\0\\#P B3LYP/6-311+g(d) force\\DPGEN\\0,2\Na,12.7154,1.005
 43,1.25504\Na,11.008,3.00482,99.6982\Na,8.8089,2.03135,1.78238\Na,6.03
 58,0.022,3.66208\Na,3.62478,1.76195,3.22606\Na,0.353539,4.39639,0.8980
 98\Na,1.76255,5.93049,98.4458\\Version=ES64L-G16RevB.01\State=2-A\HF=-
 1136.0588859\S2=1.871333\S2-1=0.\S2A=1.154512\RMSD=8.872e-09\RMSF=2.34
 9e-03\Dipole=-0.5131824,0.0838709,-0.0064845\Quadrupole=4.7271962,-1.1
 168225,-3.6103737,-4.6696333,28.3012977,-7.0080315\PG=C01 [X(Na7)]\\@


 IT IS BY LOGIC THAT WE PROVE, BUT BY INTUITION THAT WE DISCOVER.
     -- J.H.POINCARE (1854-1912)
 Job cpu time:       0 days  0 hours 12 minutes 21.2 seconds.
 Elapsed time:       0 days  0 hours 12 minutes 32.8 seconds.
 File lengths (MBytes):  RWF=     46 Int=      0 D2E=      0 Chk=      4 Scr=      1
 Normal termination of Gaussian 16 at Thu Nov 23 12:42:53 2023.
