0.000000000000000000e+00 0.000000000000000000e+00 0.000000000000000000e+00 5.336774000000000129e+00 3.430560000000000276e-01 0.000000000000000000e+00 2.662663999999999920e+00 3.031986999999999988e+00 0.000000000000000000e+00 -1.376829999999999998e+00 7.093869999999999898e+00 0.000000000000000000e+00
0.000000000000000000e+00 0.000000000000000000e+00 0.000000000000000000e+00 -9.783849999999999492e-01 3.247790999999999872e+00 0.000000000000000000e+00 -3.470966999999999913e+00 6.794883999999999702e+00 0.000000000000000000e+00 -5.262036000000000158e+00 9.343683000000000405e+00 0.000000000000000000e+00
0.000000000000000000e+00 0.000000000000000000e+00 0.000000000000000000e+00 3.581859000000000126e+00 1.801606999999999958e+00 0.000000000000000000e+00 5.530405000000000015e+00 3.055525999999999964e+00 0.000000000000000000e+00 7.688142000000000031e+00 4.444061999999999735e+00 0.000000000000000000e+00
0.000000000000000000e+00 0.000000000000000000e+00 0.000000000000000000e+00 3.043412000000000006e+00 2.050367000000000051e+00 0.000000000000000000e+00 -1.245022999999999991e+00 2.518037000000000081e+00 0.000000000000000000e+00 -5.683216999999999963e+00 3.002038000000000206e+00 0.000000000000000000e+00
0.000000000000000000e+00 0.000000000000000000e+00 0.000000000000000000e+00 4.008422000000000374e+00 1.720528999999999975e+00 0.000000000000000000e+00 6.001768000000000214e+00 5.006113000000000035e+00 0.000000000000000000e+00 8.789656000000000802e+00 9.601323999999999970e+00 0.000000000000000000e+00
0.000000000000000000e+00 0.000000000000000000e+00 0.000000000000000000e+00 -3.954346999999999834e+00 5.591129999999999711e-01 0.000000000000000000e+00 -7.729555999999999649e+00 6.483010000000000161e-01 0.000000000000000000e+00 -1.040288100000000071e+01 7.114570000000000061e-01 0.000000000000000000e+00
0.000000000000000000e+00 0.000000000000000000e+00 0.000000000000000000e+00 2.701099000000000139e+00 1.813077999999999967e+00 0.000000000000000000e+00 1.808033999999999919e+00 3.837848999999999844e+00 0.000000000000000000e+00 1.155400000000000038e-01 7.675101999999999869e+00 0.000000000000000000e+00
0.000000000000000000e+00 0.000000000000000000e+00 0.000000000000000000e+00 -6.065450000000000008e-01 2.257092000000000098e+00 0.000000000000000000e+00 -3.154132000000000158e+00 -1.609896999999999911e+00 0.000000000000000000e+00 -4.730642999999999709e+00 -4.002888999999999697e+00 0.000000000000000000e+00
0.000000000000000000e+00 0.000000000000000000e+00 0.000000000000000000e+00 3.864793000000000145e+00 1.717533999999999894e+00 0.000000000000000000e+00 2.918493999999999922e+00 5.963503000000000220e+00 0.000000000000000000e+00 2.210154000000000174e+00 9.141764999999999475e+00 0.000000000000000000e+00
0.000000000000000000e+00 0.000000000000000000e+00 0.000000000000000000e+00 2.752649999999999819e-01 3.296647000000000105e+00 0.000000000000000000e+00 -4.089783999999999864e+00 2.293890999999999902e+00 0.000000000000000000e+00 -6.358671000000000184e+00 1.772672999999999943e+00 0.000000000000000000e+00
