-1.766463921560563176e+04
-1.766567073482165506e+04
-1.766465665551913116e+04
-1.766524948903850964e+04
-1.766472192518556767e+04
-1.766539162466688867e+04
-1.766463690685556503e+04
-1.766531177851391840e+04
-1.766536355500630816e+04
-1.766526412843777143e+04
