1.895654977129115348e-01 2.817480383053594384e-01 -0.000000000000000000e+00 -2.101929972824324311e-01 1.684857410599363836e-01 -0.000000000000000000e+00 -2.775608936169645866e-02 -3.297684845960588973e-01 -0.000000000000000000e+00 4.838358893121733062e-02 -1.204652947692368692e-01 -0.000000000000000000e+00
-6.922150760085132859e-02 2.324669800304777489e-01 -0.000000000000000000e+00 3.323084261969845576e-02 -1.802482304627410770e-01 -0.000000000000000000e+00 1.297085656643088766e-02 -2.231224076624773595e-02 -0.000000000000000000e+00 2.301980841472198516e-02 -2.990650880148893603e-02 -0.000000000000000000e+00
3.246378478136084933e-01 1.620257409890879796e-01 -0.000000000000000000e+00 -1.684311462508967683e+00 -1.038523622874534924e+00 -0.000000000000000000e+00 6.135605500836022186e-01 3.998370164923802927e-01 -0.000000000000000000e+00 7.461131160338243529e-01 4.766608139709990755e-01 -0.000000000000000000e+00
3.651642476785781910e-01 -2.899743863940196231e-01 -0.000000000000000000e+00 -2.382810160896885743e-01 -1.300564359507862255e-01 -0.000000000000000000e+00 -4.593247895185704199e-01 4.812117697867889232e-01 -0.000000000000000000e+00 3.324416093517482129e-01 -6.118094744198310231e-02 -0.000000000000000000e+00
2.941770605467922683e-01 1.247121404779716614e-01 -0.000000000000000000e+00 -1.959215737853902684e-01 3.916001268798874335e-02 0.000000000000000000e+00 2.447196760025342754e-02 3.926830756209388762e-02 -0.000000000000000000e+00 -1.227274029395879346e-01 -2.031405121501217714e-01 0.000000000000000000e+00
-3.786308129754808460e-01 5.454534101070304675e-02 -0.000000000000000000e+00 3.350056164802528436e-01 -5.370402456472287561e-02 -0.000000000000000000e+00 6.623404488888596786e-01 -1.668738649328234749e-02 -0.000000000000000000e+00 -6.187152523936316761e-01 1.584612146936965546e-02 -0.000000000000000000e+00
6.881460478091117050e-02 3.373421323822421020e-02 -0.000000000000000000e+00 7.897569787395462004e-01 -1.858259358420374152e+00 -0.000000000000000000e+00 -1.018697587648700109e+00 2.103267203689046294e+00 -0.000000000000000000e+00 1.601260041282425994e-01 -2.787420585068958179e-01 -0.000000000000000000e+00
4.445514352208918551e-01 -1.444033419006768515e+00 -0.000000000000000000e+00 -4.137461201019842494e-01 1.430268759984705707e+00 -0.000000000000000000e+00 1.187479005596625281e-01 2.578199104907356043e-01 -0.000000000000000000e+00 -1.495532156785701616e-01 -2.440552514686726848e-01 -0.000000000000000000e+00
3.664713966338263851e-01 1.688807139602220286e-01 -0.000000000000000000e+00 -3.747125542779197738e-01 -7.802321720250414427e-02 0.000000000000000000e+00 -3.093407597586835672e-02 4.576245188574656897e-02 -0.000000000000000000e+00 3.917518219789425937e-02 -1.366199486434644950e-01 0.000000000000000000e+00
-1.391604558871323630e-02 2.294072127494339308e-01 -0.000000000000000000e+00 -3.692952908913563204e-02 -2.097252621566677577e-01 -0.000000000000000000e+00 1.563292866293685579e+00 3.154740240127874018e-01 -0.000000000000000000e+00 -1.512447291615836686e+00 -3.351559746055535749e-01 -0.000000000000000000e+00
