 Entering Gaussian System, Link 0=g16
 Initial command:
 /home/sekinelabo/g16/l1.exe "/home/sekinelabo/g16temp/Gau-934094.inp" -scrdir="/home/sekinelabo/g16temp/"
 Entering Link 1 = /home/sekinelabo/g16/l1.exe PID=    934121.
  
 Copyright (c) 1988-2017, Gaussian, Inc.  All Rights Reserved.
  
 This is part of the Gaussian(R) 16 program.  It is based on
 the Gaussian(R) 09 system (copyright 2009, Gaussian, Inc.),
 the Gaussian(R) 03 system (copyright 2003, Gaussian, Inc.),
 the Gaussian(R) 98 system (copyright 1998, Gaussian, Inc.),
 the Gaussian(R) 94 system (copyright 1995, Gaussian, Inc.),
 the Gaussian 92(TM) system (copyright 1992, Gaussian, Inc.),
 the Gaussian 90(TM) system (copyright 1990, Gaussian, Inc.),
 the Gaussian 88(TM) system (copyright 1988, Gaussian, Inc.),
 the Gaussian 86(TM) system (copyright 1986, Carnegie Mellon
 University), and the Gaussian 82(TM) system (copyright 1983,
 Carnegie Mellon University). Gaussian is a federally registered
 trademark of Gaussian, Inc.
  
 This software contains proprietary and confidential information,
 including trade secrets, belonging to Gaussian, Inc.
  
 This software is provided under written license and may be
 used, copied, transmitted, or stored only in accord with that
 written license.
  
 The following legend is applicable only to US Government
 contracts under FAR:
  
                    RESTRICTED RIGHTS LEGEND
  
 Use, reproduction and disclosure by the US Government is
 subject to restrictions as set forth in subparagraphs (a)
 and (c) of the Commercial Computer Software - Restricted
 Rights clause in FAR 52.227-19.
  
 Gaussian, Inc.
 340 Quinnipiac St., Bldg. 40, Wallingford CT 06492
  
  
 ---------------------------------------------------------------
 Warning -- This program may not be used in any manner that
 competes with the business of Gaussian, Inc. or will provide
 assistance to any competitor of Gaussian, Inc.  The licensee
 of this program is prohibited from giving any competitor of
 Gaussian, Inc. access to this program.  By using this program,
 the user acknowledges that Gaussian, Inc. is engaged in the
 business of creating and licensing software in the field of
 computational chemistry and represents and warrants to the
 licensee that it is not a competitor of Gaussian, Inc. and that
 it will not use this program in any manner prohibited above.
 ---------------------------------------------------------------
  

 Cite this work as:
 Gaussian 16, Revision B.01,
 M. J. Frisch, G. W. Trucks, H. B. Schlegel, G. E. Scuseria, 
 M. A. Robb, J. R. Cheeseman, G. Scalmani, V. Barone, 
 G. A. Petersson, H. Nakatsuji, X. Li, M. Caricato, A. V. Marenich, 
 J. Bloino, B. G. Janesko, R. Gomperts, B. Mennucci, H. P. Hratchian, 
 J. V. Ortiz, A. F. Izmaylov, J. L. Sonnenberg, D. Williams-Young, 
 F. Ding, F. Lipparini, F. Egidi, J. Goings, B. Peng, A. Petrone, 
 T. Henderson, D. Ranasinghe, V. G. Zakrzewski, J. Gao, N. Rega, 
 G. Zheng, W. Liang, M. Hada, M. Ehara, K. Toyota, R. Fukuda, 
 J. Hasegawa, M. Ishida, T. Nakajima, Y. Honda, O. Kitao, H. Nakai, 
 T. Vreven, K. Throssell, J. A. Montgomery, Jr., J. E. Peralta, 
 F. Ogliaro, M. J. Bearpark, J. J. Heyd, E. N. Brothers, K. N. Kudin, 
 V. N. Staroverov, T. A. Keith, R. Kobayashi, J. Normand, 
 K. Raghavachari, A. P. Rendell, J. C. Burant, S. S. Iyengar, 
 J. Tomasi, M. Cossi, J. M. Millam, M. Klene, C. Adamo, R. Cammi, 
 J. W. Ochterski, R. L. Martin, K. Morokuma, O. Farkas, 
 J. B. Foresman, and D. J. Fox, Gaussian, Inc., Wallingford CT, 2016.
 
 ******************************************
 Gaussian 16:  ES64L-G16RevB.01 20-Dec-2017
                21-Nov-2023 
 ******************************************
 %nprocshared=14
 Will use up to   14 processors via shared memory.
 -------------------------
 #P B3LYP/6-311+g(d) force
 -------------------------
 1/10=7,30=1,38=1/1,3;
 2/12=2,17=6,18=5,40=1/2;
 3/5=4,6=6,7=11,11=2,25=1,30=1,71=1,74=-5/1,2,3;
 4//1;
 5/5=2,38=5/2;
 6/7=2,8=2,9=2,10=2,28=1/1;
 7/29=1/1,2,3,16;
 1/10=7,30=1/3;
 99//99;
 Leave Link    1 at Tue Nov 21 11:40:17 2023, MaxMem=           0 cpu:               0.5 elap:               0.4
 (Enter /home/sekinelabo/g16/l101.exe)
 -----
 DPGEN
 -----
 Symbolic Z-matrix:
 Charge =  0 Multiplicity = 2
 Na                    9.26243   29.0091   28.5408 
 Na                    9.61236   1.91474   29.3669 
 Na                    9.54276   5.34269   29.3733 
 Na                    7.0281    6.19371   1.18947 
 Na                    5.28924   3.92767   2.29608 
 Na                    3.04904   1.5964    3.26135 
 Na                    0.52507   0.16769   4.93987 
 
 ITRead=  0  0  0  0  0  0  0
 MicOpt= -1 -1 -1 -1 -1 -1 -1
 NAtoms=      7 NQM=        7 NQMF=       0 NMMI=      0 NMMIF=      0
                NMic=       0 NMicF=      0.
                    Isotopes and Nuclear Properties:
 (Nuclear quadrupole moments (NQMom) in fm**2, nuclear magnetic moments (NMagM)
  in nuclear magnetons)

  Atom         1           2           3           4           5           6           7
 IAtWgt=          23          23          23          23          23          23          23
 AtmWgt=  22.9897697  22.9897697  22.9897697  22.9897697  22.9897697  22.9897697  22.9897697
 NucSpn=           3           3           3           3           3           3           3
 AtZEff=  -0.0000000  -0.0000000  -0.0000000  -0.0000000  -0.0000000  -0.0000000  -0.0000000
 NQMom=   10.4000000  10.4000000  10.4000000  10.4000000  10.4000000  10.4000000  10.4000000
 NMagM=    2.2175200   2.2175200   2.2175200   2.2175200   2.2175200   2.2175200   2.2175200
 AtZNuc=  11.0000000  11.0000000  11.0000000  11.0000000  11.0000000  11.0000000  11.0000000
 Leave Link  101 at Tue Nov 21 11:40:20 2023, MaxMem=   104857600 cpu:               2.5 elap:               2.6
 (Enter /home/sekinelabo/g16/l103.exe)

 GradGradGradGradGradGradGradGradGradGradGradGradGradGradGradGradGradGrad
 Berny optimization.
 Initialization pass.
 Trust Radius=3.00D-01 FncErr=1.00D-07 GrdErr=1.00D-07 EigMax=2.50D+02 EigMin=1.00D-04
 Number of steps in this run=      2 maximum allowed number of steps=      2.
 GradGradGradGradGradGradGradGradGradGradGradGradGradGradGradGradGradGrad

 Leave Link  103 at Tue Nov 21 11:40:20 2023, MaxMem=   104857600 cpu:               0.4 elap:               0.4
 (Enter /home/sekinelabo/g16/l202.exe)
                          Input orientation:                          
 ---------------------------------------------------------------------
 Center     Atomic      Atomic             Coordinates (Angstroms)
 Number     Number       Type             X           Y           Z
 ---------------------------------------------------------------------
      1         11           0        9.262430   29.009100   28.540800
      2         11           0        9.612360    1.914740   29.366900
      3         11           0        9.542760    5.342690   29.373300
      4         11           0        7.028100    6.193710    1.189470
      5         11           0        5.289240    3.927670    2.296080
      6         11           0        3.049040    1.596400    3.261350
      7         11           0        0.525066    0.167690    4.939870
 ---------------------------------------------------------------------
                    Distance matrix (angstroms):
                    1          2          3          4          5
     1  Na   0.000000
     2  Na  27.109209   0.000000
     3  Na  23.682707   3.428662   0.000000
     4  Na  35.687946  28.617399  28.308586   0.000000
     5  Na  36.519169  27.487644  27.445775   3.063194   0.000000
     6  Na  37.803610  26.919849  27.166837   6.423462   3.374176
     7  Na  38.277570  26.121081  26.553567   9.626415   6.620002
                    6          7
     6  Na   0.000000
     7  Na   3.350983   0.000000
 Stoichiometry    Na7(2)
 Framework group  C1[X(Na7)]
 Deg. of freedom    15
 Full point group                 C1      NOp   1
 Largest Abelian subgroup         C1      NOp   1
 Largest concise Abelian subgroup C1      NOp   1
                         Standard orientation:                         
 ---------------------------------------------------------------------
 Center     Atomic      Atomic             Coordinates (Angstroms)
 Number     Number       Type             X           Y           Z
 ---------------------------------------------------------------------
      1         11           0       22.846673   13.524781    0.943847
      2         11           0       11.879556  -11.208618   -0.756312
      3         11           0       13.360153   -8.127063   -0.496357
      4         11           0      -11.580789    5.017225   -3.056259
      5         11           0      -11.912797    2.547301   -1.275135
      6         11           0      -12.491062    0.095083    0.969257
      7         11           0      -12.101733   -1.848707    3.670959
 ---------------------------------------------------------------------
 Rotational constants (GHZ):           0.0503290           0.0151900           0.0120139
 Leave Link  202 at Tue Nov 21 11:40:21 2023, MaxMem=   104857600 cpu:               0.8 elap:               0.8
 (Enter /home/sekinelabo/g16/l301.exe)
 Standard basis: 6-311+G(d) (5D, 7F)
 Ernie: Thresh=  0.10000D-02 Tol=  0.10000D-05 Strict=F.
 There are   217 symmetry adapted cartesian basis functions of A   symmetry.
 There are   210 symmetry adapted basis functions of A   symmetry.
   210 basis functions,   350 primitive gaussians,   217 cartesian basis functions
    39 alpha electrons       38 beta electrons
       nuclear repulsion energy       134.6944032123 Hartrees.
 IExCor=  402 DFT=T Ex+Corr=B3LYP ExCW=0 ScaHFX=  0.200000
 ScaDFX=  0.800000  0.720000  1.000000  0.810000 ScalE2=  1.000000  1.000000
 IRadAn=      5 IRanWt=     -1 IRanGd=            0 ICorTp=0 IEmpDi=  4
 NAtoms=    7 NActive=    7 NUniq=    7 SFac= 1.00D+00 NAtFMM=   60 NAOKFM=F Big=F
 Integral buffers will be    131072 words long.
 Raffenetti 2 integral format.
 Two-electron integral symmetry is turned on.
 Leave Link  301 at Tue Nov 21 11:40:22 2023, MaxMem=   104857600 cpu:               0.7 elap:               0.7
 (Enter /home/sekinelabo/g16/l302.exe)
 NPDir=0 NMtPBC=     1 NCelOv=     1 NCel=       1 NClECP=     1 NCelD=      1
         NCelK=      1 NCelE2=     1 NClLst=     1 CellRange=     0.0.
 One-electron integrals computed using PRISM.
 One-electron integral symmetry used in STVInt
 NBasis=   210 RedAO= T EigKep=  1.55D-06  NBF=   210
 NBsUse=   210 1.00D-06 EigRej= -1.00D+00 NBFU=   210
 Precomputing XC quadrature grid using
 IXCGrd= 4 IRadAn=           5 IRanWt=          -1 IRanGd=           0 AccXCQ= 0.00D+00.
 Generated NRdTot=       0 NPtTot=           0 NUsed=           0 NTot=          32
 NSgBfM=   161   161   161   161   161 MxSgAt=     7 MxSgA2=     7.
 Leave Link  302 at Tue Nov 21 11:40:53 2023, MaxMem=   104857600 cpu:              28.2 elap:              30.9
 (Enter /home/sekinelabo/g16/l303.exe)
 DipDrv:  MaxL=1.
 Leave Link  303 at Tue Nov 21 11:40:55 2023, MaxMem=   104857600 cpu:               2.5 elap:               2.6
 (Enter /home/sekinelabo/g16/l401.exe)
 ExpMin= 7.60D-03 ExpMax= 3.62D+04 ExpMxC= 1.21D+03 IAcc=3 IRadAn=         5 AccDes= 0.00D+00
 Harris functional with IExCor=  402 and IRadAn=       5 diagonalized for initial guess.
 HarFok:  IExCor=  402 AccDes= 0.00D+00 IRadAn=         5 IDoV= 1 UseB2=F ITyADJ=14
 ICtDFT=  3500011 ScaDFX=  1.000000  1.000000  1.000000  1.000000
 FoFCou: FMM=F IPFlag=           0 FMFlag=      100000 FMFlg1=           0
         NFxFlg=           0 DoJE=T BraDBF=F KetDBF=T FulRan=T
         wScrn=  0.000000 ICntrl=       500 IOpCl=  0 I1Cent=   200000004 NGrid=           0
         NMat0=    1 NMatS0=      1 NMatT0=    0 NMatD0=    1 NMtDS0=    0 NMtDT0=    0
 Petite list used in FoFCou.
 Harris En= -1135.85846217800    
 JPrj=0 DoOrth=F DoCkMO=F.
 Initial guess <Sx>= 0.0000 <Sy>= 0.0000 <Sz>= 0.5000 <S**2>= 0.7500 S= 0.5000
 Leave Link  401 at Tue Nov 21 11:41:13 2023, MaxMem=   104857600 cpu:              15.9 elap:              17.1
 (Enter /home/sekinelabo/g16/l502.exe)
 Integral symmetry usage will be decided dynamically.
 UHF open shell SCF:
 Using DIIS extrapolation, IDIIS=  1040.
 NGot=   104857600 LenX=   104758426 LenY=   104710896
 Requested convergence on RMS density matrix=1.00D-08 within 128 cycles.
 Requested convergence on MAX density matrix=1.00D-06.
 Requested convergence on             energy=1.00D-06.
 No special actions if energy rises.
 Fock matrices will be formed incrementally for  20 cycles.

 Cycle   1  Pass 1  IDiag  1:
 FoFJK:  IHMeth= 1 ICntrl=       0 DoSepK=F KAlg= 0 I1Cent=           0 FoldK=F
 IRaf= 490000000 NMat=       1 IRICut=       1 DoRegI=T DoRafI=F ISym2E= 0 IDoP0=0 IntGTp=1.
 FoFCou: FMM=F IPFlag=           0 FMFlag=      100000 FMFlg1=           0
         NFxFlg=           0 DoJE=F BraDBF=F KetDBF=F FulRan=T
         wScrn=  0.000000 ICntrl=         0 IOpCl=  1 I1Cent=           0 NGrid=           0
         NMat0=    1 NMatS0=      1 NMatT0=    0 NMatD0=    1 NMtDS0=    0 NMtDT0=    0
 Symmetry not used in FoFCou.
 E= -1136.06507355086    
 DIIS: error= 2.00D-02 at cycle   1 NSaved=   1.
 NSaved= 1 IEnMin= 1 EnMin= -1136.06507355086     IErMin= 1 ErrMin= 2.00D-02
 ErrMax= 2.00D-02  0.00D+00 EMaxC= 1.00D-01 BMatC= 1.83D-01 BMatP= 1.83D-01
 IDIUse=3 WtCom= 8.00D-01 WtEn= 2.00D-01
 Coeff-Com:  0.100D+01
 Coeff-En:   0.100D+01
 Coeff:      0.100D+01
 Gap=     0.061 Goal=   None    Shift=    0.000
 Gap=     0.048 Goal=   None    Shift=    0.000
 GapD=    0.048 DampG=0.250 DampE=0.500 DampFc=0.2500 IDamp=-1.
 Damping current iteration by 2.50D-01
 RMSDP=1.40D-02 MaxDP=1.08D+00              OVMax= 1.22D-01

 Cycle   2  Pass 1  IDiag  1:
 RMSU=  2.17D-03    CP:  9.17D-01
 E= -1136.07248200569     Delta-E=       -0.007408454833 Rises=F Damp=T
 DIIS: error= 1.39D-02 at cycle   2 NSaved=   2.
 NSaved= 2 IEnMin= 2 EnMin= -1136.07248200569     IErMin= 2 ErrMin= 1.39D-02
 ErrMax= 1.39D-02  0.00D+00 EMaxC= 1.00D-01 BMatC= 7.07D-02 BMatP= 1.83D-01
 IDIUse=3 WtCom= 8.61D-01 WtEn= 1.39D-01
 Coeff-Com: -0.130D+01 0.230D+01
 Coeff-En:   0.000D+00 0.100D+01
 Coeff:     -0.112D+01 0.212D+01
 Gap=     0.046 Goal=   None    Shift=    0.000
 Gap=     0.046 Goal=   None    Shift=    0.000
 RMSDP=1.28D-02 MaxDP=1.01D+00 DE=-7.41D-03 OVMax= 9.34D-02

 Cycle   3  Pass 1  IDiag  1:
 RMSU=  4.33D-03    CP:  6.20D-01  3.00D+00
 E= -1136.08719476351     Delta-E=       -0.014712757823 Rises=F Damp=F
 DIIS: error= 1.85D-03 at cycle   3 NSaved=   3.
 NSaved= 3 IEnMin= 3 EnMin= -1136.08719476351     IErMin= 3 ErrMin= 1.85D-03
 ErrMax= 1.85D-03  0.00D+00 EMaxC= 1.00D-01 BMatC= 7.70D-04 BMatP= 7.07D-02
 IDIUse=3 WtCom= 9.82D-01 WtEn= 1.85D-02
 Coeff-Com:  0.443D-01-0.279D-01 0.984D+00
 Coeff-En:   0.000D+00 0.000D+00 0.100D+01
 Coeff:      0.435D-01-0.274D-01 0.984D+00
 Gap=     0.049 Goal=   None    Shift=    0.000
 Gap=     0.049 Goal=   None    Shift=    0.000
 RMSDP=2.76D-03 MaxDP=1.91D-01 DE=-1.47D-02 OVMax= 8.37D-02

 Cycle   4  Pass 1  IDiag  1:
 RMSU=  8.76D-04    CP:  6.71D-01  3.00D+00  5.38D-01
 E= -1136.08613504265     Delta-E=        0.001059720868 Rises=F Damp=F
 DIIS: error= 2.90D-03 at cycle   4 NSaved=   4.
 NSaved= 4 IEnMin= 3 EnMin= -1136.08719476351     IErMin= 3 ErrMin= 1.85D-03
 ErrMax= 2.90D-03  0.00D+00 EMaxC= 1.00D-01 BMatC= 1.40D-03 BMatP= 7.70D-04
 IDIUse=3 WtCom= 1.57D-01 WtEn= 8.43D-01
 Coeff-Com:  0.694D-01-0.912D-01 0.613D+00 0.408D+00
 Coeff-En:   0.000D+00 0.000D+00 0.698D+00 0.302D+00
 Coeff:      0.109D-01-0.143D-01 0.684D+00 0.319D+00
 Gap=     0.048 Goal=   None    Shift=    0.000
 Gap=     0.048 Goal=   None    Shift=    0.000
 RMSDP=1.47D-03 MaxDP=9.91D-02 DE= 1.06D-03 OVMax= 4.06D-02

 Cycle   5  Pass 1  IDiag  1:
 RMSU=  1.48D-04    CP:  6.45D-01  3.00D+00  7.89D-01  4.49D-01
 E= -1136.08778753168     Delta-E=       -0.001652489039 Rises=F Damp=F
 DIIS: error= 4.69D-04 at cycle   5 NSaved=   5.
 NSaved= 5 IEnMin= 5 EnMin= -1136.08778753168     IErMin= 5 ErrMin= 4.69D-04
 ErrMax= 4.69D-04  0.00D+00 EMaxC= 1.00D-01 BMatC= 7.78D-05 BMatP= 7.70D-04
 IDIUse=3 WtCom= 9.95D-01 WtEn= 4.69D-03
 EnCoef did     1 forward-backward iterations
 Coeff-Com: -0.286D-01 0.380D-01 0.167D+00-0.396D-01 0.864D+00
 Coeff-En:   0.000D+00 0.000D+00 0.592D-03 0.000D+00 0.999D+00
 Coeff:     -0.285D-01 0.378D-01 0.166D+00-0.394D-01 0.864D+00
 Gap=     0.048 Goal=   None    Shift=    0.000
 Gap=     0.048 Goal=   None    Shift=    0.000
 RMSDP=5.37D-04 MaxDP=3.69D-02 DE=-1.65D-03 OVMax= 8.38D-03

 Cycle   6  Pass 1  IDiag  1:
 RMSU=  4.88D-05    CP:  6.34D-01  3.00D+00  8.77D-01  3.84D-01  6.31D-01
 E= -1136.08782787160     Delta-E=       -0.000040339913 Rises=F Damp=F
 DIIS: error= 5.10D-05 at cycle   6 NSaved=   6.
 NSaved= 6 IEnMin= 6 EnMin= -1136.08782787160     IErMin= 6 ErrMin= 5.10D-05
 ErrMax= 5.10D-05  0.00D+00 EMaxC= 1.00D-01 BMatC= 6.69D-07 BMatP= 7.78D-05
 IDIUse=1 WtCom= 1.00D+00 WtEn= 0.00D+00
 Coeff-Com: -0.171D-01 0.226D-01 0.473D-01-0.368D-01 0.397D+00 0.587D+00
 Coeff:     -0.171D-01 0.226D-01 0.473D-01-0.368D-01 0.397D+00 0.587D+00
 Gap=     0.048 Goal=   None    Shift=    0.000
 Gap=     0.048 Goal=   None    Shift=    0.000
 RMSDP=5.55D-05 MaxDP=2.68D-03 DE=-4.03D-05 OVMax= 1.93D-03

 Cycle   7  Pass 1  IDiag  1:
 RMSU=  4.16D-05    CP:  6.34D-01  3.00D+00  8.70D-01  3.74D-01  6.65D-01
                    CP:  5.89D-01
 E= -1136.08782844969     Delta-E=       -0.000000578089 Rises=F Damp=F
 DIIS: error= 2.49D-05 at cycle   7 NSaved=   7.
 NSaved= 7 IEnMin= 7 EnMin= -1136.08782844969     IErMin= 7 ErrMin= 2.49D-05
 ErrMax= 2.49D-05  0.00D+00 EMaxC= 1.00D-01 BMatC= 1.02D-07 BMatP= 6.69D-07
 IDIUse=1 WtCom= 1.00D+00 WtEn= 0.00D+00
 Coeff-Com: -0.271D-02 0.356D-02 0.251D-03-0.682D-02 0.392D-01 0.292D+00
 Coeff-Com:  0.675D+00
 Coeff:     -0.271D-02 0.356D-02 0.251D-03-0.682D-02 0.392D-01 0.292D+00
 Coeff:      0.675D+00
 Gap=     0.048 Goal=   None    Shift=    0.000
 Gap=     0.048 Goal=   None    Shift=    0.000
 RMSDP=2.84D-05 MaxDP=1.24D-03 DE=-5.78D-07 OVMax= 7.86D-04

 Cycle   8  Pass 1  IDiag  1:
 RMSU=  4.85D-06    CP:  6.34D-01  3.00D+00  8.74D-01  3.83D-01  6.25D-01
                    CP:  7.68D-01  5.77D-01
 E= -1136.08782858040     Delta-E=       -0.000000130709 Rises=F Damp=F
 DIIS: error= 6.80D-06 at cycle   8 NSaved=   8.
 NSaved= 8 IEnMin= 8 EnMin= -1136.08782858040     IErMin= 8 ErrMin= 6.80D-06
 ErrMax= 6.80D-06  0.00D+00 EMaxC= 1.00D-01 BMatC= 5.12D-09 BMatP= 1.02D-07
 IDIUse=1 WtCom= 1.00D+00 WtEn= 0.00D+00
 Coeff-Com: -0.138D-03 0.168D-03-0.225D-02-0.120D-02-0.495D-02 0.761D-01
 Coeff-Com:  0.277D+00 0.655D+00
 Coeff:     -0.138D-03 0.168D-03-0.225D-02-0.120D-02-0.495D-02 0.761D-01
 Coeff:      0.277D+00 0.655D+00
 Gap=     0.048 Goal=   None    Shift=    0.000
 Gap=     0.048 Goal=   None    Shift=    0.000
 RMSDP=6.95D-06 MaxDP=4.72D-04 DE=-1.31D-07 OVMax= 2.03D-04

 Cycle   9  Pass 1  IDiag  1:
 RMSU=  6.83D-07    CP:  6.34D-01  3.00D+00  8.74D-01  3.81D-01  6.30D-01
                    CP:  7.63D-01  6.74D-01  7.75D-01
 E= -1136.08782858965     Delta-E=       -0.000000009249 Rises=F Damp=F
 DIIS: error= 1.46D-06 at cycle   9 NSaved=   9.
 NSaved= 9 IEnMin= 9 EnMin= -1136.08782858965     IErMin= 9 ErrMin= 1.46D-06
 ErrMax= 1.46D-06  0.00D+00 EMaxC= 1.00D-01 BMatC= 3.37D-10 BMatP= 5.12D-09
 IDIUse=1 WtCom= 1.00D+00 WtEn= 0.00D+00
 Coeff-Com:  0.396D-03-0.528D-03-0.714D-03 0.904D-03-0.788D-02-0.328D-02
 Coeff-Com:  0.198D-01 0.206D+00 0.786D+00
 Coeff:      0.396D-03-0.528D-03-0.714D-03 0.904D-03-0.788D-02-0.328D-02
 Coeff:      0.198D-01 0.206D+00 0.786D+00
 Gap=     0.048 Goal=   None    Shift=    0.000
 Gap=     0.048 Goal=   None    Shift=    0.000
 RMSDP=2.40D-06 MaxDP=1.43D-04 DE=-9.25D-09 OVMax= 4.03D-05

 Cycle  10  Pass 1  IDiag  1:
 RMSU=  1.76D-07    CP:  6.34D-01  3.00D+00  8.75D-01  3.81D-01  6.26D-01
                    CP:  7.75D-01  6.64D-01  8.30D-01  1.10D+00
 E= -1136.08782859014     Delta-E=       -0.000000000498 Rises=F Damp=F
 DIIS: error= 1.39D-07 at cycle  10 NSaved=  10.
 NSaved=10 IEnMin=10 EnMin= -1136.08782859014     IErMin=10 ErrMin= 1.39D-07
 ErrMax= 1.39D-07  0.00D+00 EMaxC= 1.00D-01 BMatC= 8.89D-12 BMatP= 3.37D-10
 IDIUse=1 WtCom= 1.00D+00 WtEn= 0.00D+00
 Coeff-Com:  0.128D-03-0.170D-03-0.252D-04 0.360D-03-0.196D-02-0.657D-02
 Coeff-Com: -0.914D-02 0.189D-01 0.165D+00 0.834D+00
 Coeff:      0.128D-03-0.170D-03-0.252D-04 0.360D-03-0.196D-02-0.657D-02
 Coeff:     -0.914D-02 0.189D-01 0.165D+00 0.834D+00
 Gap=     0.048 Goal=   None    Shift=    0.000
 Gap=     0.048 Goal=   None    Shift=    0.000
 RMSDP=2.74D-07 MaxDP=1.60D-05 DE=-4.98D-10 OVMax= 3.57D-06

 Cycle  11  Pass 1  IDiag  1:
 RMSU=  3.16D-08    CP:  6.34D-01  3.00D+00  8.75D-01  3.81D-01  6.25D-01
                    CP:  7.76D-01  6.64D-01  8.54D-01  1.12D+00  1.31D+00
 E= -1136.08782859015     Delta-E=       -0.000000000008 Rises=F Damp=F
 DIIS: error= 2.82D-08 at cycle  11 NSaved=  11.
 NSaved=11 IEnMin=11 EnMin= -1136.08782859015     IErMin=11 ErrMin= 2.82D-08
 ErrMax= 2.82D-08  0.00D+00 EMaxC= 1.00D-01 BMatC= 4.11D-13 BMatP= 8.89D-12
 IDIUse=1 WtCom= 1.00D+00 WtEn= 0.00D+00
 Coeff-Com:  0.952D-05-0.126D-04 0.129D-04 0.341D-04-0.133D-03-0.846D-03
 Coeff-Com: -0.151D-02-0.324D-02 0.683D-02 0.188D+00 0.811D+00
 Coeff:      0.952D-05-0.126D-04 0.129D-04 0.341D-04-0.133D-03-0.846D-03
 Coeff:     -0.151D-02-0.324D-02 0.683D-02 0.188D+00 0.811D+00
 Gap=     0.048 Goal=   None    Shift=    0.000
 Gap=     0.048 Goal=   None    Shift=    0.000
 RMSDP=3.83D-08 MaxDP=2.28D-06 DE=-7.73D-12 OVMax= 6.74D-07

 Cycle  12  Pass 1  IDiag  1:
 RMSU=  8.00D-09    CP:  6.34D-01  3.00D+00  8.75D-01  3.81D-01  6.24D-01
                    CP:  7.76D-01  6.64D-01  8.56D-01  1.13D+00  1.39D+00
                    CP:  1.10D+00
 E= -1136.08782859015     Delta-E=        0.000000000003 Rises=F Damp=F
 DIIS: error= 1.36D-08 at cycle  12 NSaved=  12.
 NSaved=12 IEnMin=11 EnMin= -1136.08782859015     IErMin=12 ErrMin= 1.36D-08
 ErrMax= 1.36D-08  0.00D+00 EMaxC= 1.00D-01 BMatC= 5.83D-14 BMatP= 4.11D-13
 IDIUse=1 WtCom= 1.00D+00 WtEn= 0.00D+00
 Coeff-Com: -0.331D-05 0.442D-05 0.603D-05-0.535D-05 0.509D-04 0.592D-04
 Coeff-Com: -0.115D-03-0.238D-02-0.503D-02 0.265D-01 0.348D+00 0.633D+00
 Coeff:     -0.331D-05 0.442D-05 0.603D-05-0.535D-05 0.509D-04 0.592D-04
 Coeff:     -0.115D-03-0.238D-02-0.503D-02 0.265D-01 0.348D+00 0.633D+00
 Gap=     0.048 Goal=   None    Shift=    0.000
 Gap=     0.048 Goal=   None    Shift=    0.000
 RMSDP=9.98D-09 MaxDP=4.58D-07 DE= 3.18D-12 OVMax= 3.99D-07

 SCF Done:  E(UB3LYP) =  -1136.08782859     A.U. after   12 cycles
            NFock= 12  Conv=0.10D-07     -V/T= 2.0029
 <Sx>= 0.0000 <Sy>= 0.0000 <Sz>= 0.5000 <S**2>= 0.7500 S= 0.5000
 <L.S>= 0.000000000000E+00
 KE= 1.132815379249D+03 PE=-2.998109361487D+03 EE= 5.945117504349D+02
 Annihilation of the first spin contaminant:
 S**2 before annihilation     0.7500,   after     0.7500
 Leave Link  502 at Tue Nov 21 11:47:00 2023, MaxMem=   104857600 cpu:             320.5 elap:             346.9
 (Enter /home/sekinelabo/g16/l601.exe)
 Copying SCF densities to generalized density rwf, IOpCl= 1 IROHF=0.

 **********************************************************************

            Population analysis using the SCF Density.

 **********************************************************************

 Orbital symmetries:
 Alpha Orbitals:
       Occupied  (A) (A) (A) (A) (A) (A) (A) (A) (A) (A) (A) (A)
                 (A) (A) (A) (A) (A) (A) (A) (A) (A) (A) (A) (A)
                 (A) (A) (A) (A) (A) (A) (A) (A) (A) (A) (A) (A)
                 (A) (A) (A)
       Virtual   (A) (A) (A) (A) (A) (A) (A) (A) (A) (A) (A) (A)
                 (A) (A) (A) (A) (A) (A) (A) (A) (A) (A) (A) (A)
                 (A) (A) (A) (A) (A) (A) (A) (A) (A) (A) (A) (A)
                 (A) (A) (A) (A) (A) (A) (A) (A) (A) (A) (A) (A)
                 (A) (A) (A) (A) (A) (A) (A) (A) (A) (A) (A) (A)
                 (A) (A) (A) (A) (A) (A) (A) (A) (A) (A) (A) (A)
                 (A) (A) (A) (A) (A) (A) (A) (A) (A) (A) (A) (A)
                 (A) (A) (A) (A) (A) (A) (A) (A) (A) (A) (A) (A)
                 (A) (A) (A) (A) (A) (A) (A) (A) (A) (A) (A) (A)
                 (A) (A) (A) (A) (A) (A) (A) (A) (A) (A) (A) (A)
                 (A) (A) (A) (A) (A) (A) (A) (A) (A) (A) (A) (A)
                 (A) (A) (A) (A) (A) (A) (A) (A) (A) (A) (A) (A)
                 (A) (A) (A) (A) (A) (A) (A) (A) (A) (A) (A) (A)
                 (A) (A) (A) (A) (A) (A) (A) (A) (A) (A) (A) (A)
                 (A) (A) (A)
 Beta  Orbitals:
       Occupied  (A) (A) (A) (A) (A) (A) (A) (A) (A) (A) (A) (A)
                 (A) (A) (A) (A) (A) (A) (A) (A) (A) (A) (A) (A)
                 (A) (A) (A) (A) (A) (A) (A) (A) (A) (A) (A) (A)
                 (A) (A)
       Virtual   (A) (A) (A) (A) (A) (A) (A) (A) (A) (A) (A) (A)
                 (A) (A) (A) (A) (A) (A) (A) (A) (A) (A) (A) (A)
                 (A) (A) (A) (A) (A) (A) (A) (A) (A) (A) (A) (A)
                 (A) (A) (A) (A) (A) (A) (A) (A) (A) (A) (A) (A)
                 (A) (A) (A) (A) (A) (A) (A) (A) (A) (A) (A) (A)
                 (A) (A) (A) (A) (A) (A) (A) (A) (A) (A) (A) (A)
                 (A) (A) (A) (A) (A) (A) (A) (A) (A) (A) (A) (A)
                 (A) (A) (A) (A) (A) (A) (A) (A) (A) (A) (A) (A)
                 (A) (A) (A) (A) (A) (A) (A) (A) (A) (A) (A) (A)
                 (A) (A) (A) (A) (A) (A) (A) (A) (A) (A) (A) (A)
                 (A) (A) (A) (A) (A) (A) (A) (A) (A) (A) (A) (A)
                 (A) (A) (A) (A) (A) (A) (A) (A) (A) (A) (A) (A)
                 (A) (A) (A) (A) (A) (A) (A) (A) (A) (A) (A) (A)
                 (A) (A) (A) (A) (A) (A) (A) (A) (A) (A) (A) (A)
                 (A) (A) (A) (A)
 The electronic state is 2-A.
 Alpha  occ. eigenvalues --  -38.45781 -38.45080 -38.44887 -38.44548 -38.44547
 Alpha  occ. eigenvalues --  -38.44155 -38.43952  -2.21566  -2.20826  -2.20670
 Alpha  occ. eigenvalues --   -2.20290  -2.20281  -2.19940  -2.19772  -1.15179
 Alpha  occ. eigenvalues --   -1.15179  -1.15179  -1.14492  -1.14492  -1.14465
 Alpha  occ. eigenvalues --   -1.14349  -1.14321  -1.14321  -1.13962  -1.13962
 Alpha  occ. eigenvalues --   -1.13953  -1.13953  -1.13950  -1.13875  -1.13615
 Alpha  occ. eigenvalues --   -1.13610  -1.13590  -1.13429  -1.13429  -1.13421
 Alpha  occ. eigenvalues --   -0.14512  -0.12809  -0.12698  -0.12402
 Alpha virt. eigenvalues --   -0.07610  -0.06062  -0.03762  -0.03050  -0.03014
 Alpha virt. eigenvalues --   -0.02232  -0.02231  -0.02108  -0.02108  -0.02108
 Alpha virt. eigenvalues --   -0.01855  -0.01814  -0.01283  -0.01057   0.00109
 Alpha virt. eigenvalues --    0.00161   0.00243   0.00311   0.00396   0.00426
 Alpha virt. eigenvalues --    0.00427   0.00561   0.00690   0.01153   0.01309
 Alpha virt. eigenvalues --    0.01311   0.01313   0.01320   0.01326   0.01326
 Alpha virt. eigenvalues --    0.01332   0.01362   0.01415   0.01485   0.01742
 Alpha virt. eigenvalues --    0.02181   0.02386   0.02461   0.02545   0.02597
 Alpha virt. eigenvalues --    0.02639   0.02643   0.02761   0.03299   0.03442
 Alpha virt. eigenvalues --    0.03957   0.04037   0.04116   0.04214   0.04515
 Alpha virt. eigenvalues --    0.05463   0.05677   0.07046   0.07167   0.07260
 Alpha virt. eigenvalues --    0.07416   0.07462   0.07462   0.07500   0.07609
 Alpha virt. eigenvalues --    0.07612   0.08011   0.08155   0.08271   0.08673
 Alpha virt. eigenvalues --    0.08709   0.08868   0.09164   0.09264   0.09400
 Alpha virt. eigenvalues --    0.09401   0.10215   0.10835   0.11083   0.12657
 Alpha virt. eigenvalues --    0.13998   0.14076   0.15449   0.16397   0.19211
 Alpha virt. eigenvalues --    0.27164   0.28017   0.30242   0.30243   0.31397
 Alpha virt. eigenvalues --    0.31886   0.32091   0.32627   0.33184   0.33217
 Alpha virt. eigenvalues --    0.33217   0.33217   0.33217   0.33217   0.33728
 Alpha virt. eigenvalues --    0.34024   0.34024   0.34255   0.34456   0.36545
 Alpha virt. eigenvalues --    0.36686   0.36876   0.36876   0.37989   0.38579
 Alpha virt. eigenvalues --    0.38688   0.39903   0.41931   0.41931   0.41937
 Alpha virt. eigenvalues --    0.42073   0.42927   0.43129   0.43269   0.43284
 Alpha virt. eigenvalues --    0.43285   0.43493   0.43660   0.43685   0.43688
 Alpha virt. eigenvalues --    0.43924   0.44485   0.44997   0.44997   0.45128
 Alpha virt. eigenvalues --    0.45258   0.45695   0.45914   0.47261   0.47350
 Alpha virt. eigenvalues --    0.51992   0.52305   0.56564   0.59578   0.64590
 Alpha virt. eigenvalues --    0.74228   1.98658   1.99975   2.00538   2.09525
 Alpha virt. eigenvalues --    2.11089   2.13018   2.19190   4.40314   4.42460
 Alpha virt. eigenvalues --    4.42801   4.42801   4.42810   4.43480   4.43496
 Alpha virt. eigenvalues --    4.43816   4.43931   4.44087   4.44088   4.44691
 Alpha virt. eigenvalues --    4.44691   4.44800   4.45235   4.46383   4.46526
 Alpha virt. eigenvalues --    4.48735   4.51182   4.56077   4.64150  96.17675
 Alpha virt. eigenvalues --   96.18619  96.19354  96.30567  96.32102  96.35085
 Alpha virt. eigenvalues --   96.41642
  Beta  occ. eigenvalues --  -38.45596 -38.45080 -38.44887 -38.44548 -38.44547
  Beta  occ. eigenvalues --  -38.44155 -38.43952  -2.21220  -2.20826  -2.20670
  Beta  occ. eigenvalues --   -2.20290  -2.20281  -2.19940  -2.19772  -1.14944
  Beta  occ. eigenvalues --   -1.14944  -1.14944  -1.14492  -1.14492  -1.14465
  Beta  occ. eigenvalues --   -1.14349  -1.14321  -1.14321  -1.13962  -1.13962
  Beta  occ. eigenvalues --   -1.13953  -1.13953  -1.13950  -1.13875  -1.13615
  Beta  occ. eigenvalues --   -1.13610  -1.13590  -1.13429  -1.13429  -1.13421
  Beta  occ. eigenvalues --   -0.14512  -0.12698  -0.12402
  Beta virt. eigenvalues --   -0.07610  -0.06229  -0.06062  -0.03762  -0.03050
  Beta virt. eigenvalues --   -0.03014  -0.02232  -0.02231  -0.01855  -0.01814
  Beta virt. eigenvalues --   -0.01283  -0.01057  -0.00092  -0.00092  -0.00091
  Beta virt. eigenvalues --    0.00161   0.00243   0.00311   0.00396   0.00426
  Beta virt. eigenvalues --    0.00427   0.00561   0.00690   0.00844   0.01153
  Beta virt. eigenvalues --    0.01311   0.01314   0.01320   0.01332   0.01362
  Beta virt. eigenvalues --    0.01415   0.01485   0.01710   0.02181   0.02234
  Beta virt. eigenvalues --    0.02239   0.02240   0.02386   0.02461   0.02567
  Beta virt. eigenvalues --    0.02597   0.02639   0.02643   0.02761   0.03299
  Beta virt. eigenvalues --    0.03442   0.03957   0.04039   0.04116   0.04214
  Beta virt. eigenvalues --    0.04515   0.05463   0.05677   0.07065   0.07167
  Beta virt. eigenvalues --    0.07260   0.07416   0.07608   0.07612   0.08155
  Beta virt. eigenvalues --    0.08271   0.08673   0.08706   0.08817   0.08817
  Beta virt. eigenvalues --    0.08835   0.08868   0.09164   0.09264   0.09400
  Beta virt. eigenvalues --    0.09401   0.09451   0.10216   0.10835   0.11083
  Beta virt. eigenvalues --    0.12657   0.13998   0.14076   0.15449   0.16397
  Beta virt. eigenvalues --    0.19211   0.27164   0.28017   0.30242   0.30243
  Beta virt. eigenvalues --    0.31396   0.31886   0.32091   0.32627   0.33184
  Beta virt. eigenvalues --    0.33728   0.34024   0.34024   0.34255   0.34456
  Beta virt. eigenvalues --    0.35315   0.35315   0.35315   0.35315   0.35315
  Beta virt. eigenvalues --    0.36545   0.36686   0.36876   0.36876   0.37989
  Beta virt. eigenvalues --    0.38579   0.38688   0.39903   0.42073   0.42927
  Beta virt. eigenvalues --    0.43129   0.43269   0.43284   0.43285   0.43425
  Beta virt. eigenvalues --    0.43425   0.43432   0.43493   0.43660   0.43685
  Beta virt. eigenvalues --    0.43688   0.43924   0.44485   0.44997   0.44997
  Beta virt. eigenvalues --    0.45128   0.45258   0.45695   0.45914   0.47261
  Beta virt. eigenvalues --    0.47350   0.51992   0.52305   0.56564   0.59578
  Beta virt. eigenvalues --    0.64590   0.74228   1.99527   1.99975   2.00538
  Beta virt. eigenvalues --    2.09525   2.11089   2.13018   2.19190   4.40314
  Beta virt. eigenvalues --    4.42463   4.43124   4.43124   4.43130   4.43480
  Beta virt. eigenvalues --    4.43496   4.43816   4.43931   4.44087   4.44088
  Beta virt. eigenvalues --    4.44691   4.44691   4.44800   4.45235   4.46383
  Beta virt. eigenvalues --    4.46526   4.48735   4.51182   4.56077   4.64150
  Beta virt. eigenvalues --   96.17944  96.18619  96.19354  96.30567  96.32102
  Beta virt. eigenvalues --   96.35085  96.41642
          Condensed to atoms (all electrons):
               1          2          3          4          5          6
     1  Na  11.000000  -0.000000  -0.000000  -0.000000   0.000000   0.000000
     2  Na  -0.000000  10.683659   0.316308  -0.000000  -0.000000  -0.000000
     3  Na  -0.000000   0.316308  10.683725  -0.000000  -0.000000   0.000000
     4  Na  -0.000000  -0.000000  -0.000000  11.257325  -0.336826  -0.967631
     5  Na   0.000000  -0.000000  -0.000000  -0.336826  12.354790   0.137379
     6  Na   0.000000  -0.000000   0.000000  -0.967631   0.137379  12.648349
     7  Na  -0.000000   0.000000  -0.000000   0.153340  -0.376826  -0.146455
               7
     1  Na  -0.000000
     2  Na   0.000000
     3  Na  -0.000000
     4  Na   0.153340
     5  Na  -0.376826
     6  Na  -0.146455
     7  Na  10.813576
          Atomic-Atomic Spin Densities.
               1          2          3          4          5          6
     1  Na   1.000000  -0.000000  -0.000000  -0.000000   0.000000   0.000000
     2  Na  -0.000000   0.000037  -0.000009  -0.000000  -0.000000   0.000000
     3  Na  -0.000000  -0.000009  -0.000020   0.000000   0.000000  -0.000000
     4  Na  -0.000000  -0.000000   0.000000   0.000000  -0.000000  -0.000000
     5  Na   0.000000  -0.000000   0.000000  -0.000000   0.000000   0.000000
     6  Na   0.000000   0.000000  -0.000000  -0.000000   0.000000   0.000000
     7  Na   0.000000  -0.000000   0.000000   0.000000   0.000000  -0.000000
               7
     1  Na   0.000000
     2  Na  -0.000000
     3  Na   0.000000
     4  Na   0.000000
     5  Na   0.000000
     6  Na  -0.000000
     7  Na  -0.000000
 Mulliken charges and spin densities:
               1          2
     1  Na  -0.000000   1.000000
     2  Na   0.000033   0.000028
     3  Na  -0.000033  -0.000028
     4  Na   0.893793  -0.000000
     5  Na  -0.778516  -0.000000
     6  Na  -0.671641   0.000000
     7  Na   0.556365  -0.000000
 Sum of Mulliken charges =  -0.00000   1.00000
 Mulliken charges and spin densities with hydrogens summed into heavy atoms:
               1          2
     1  Na  -0.000000   1.000000
     2  Na   0.000033   0.000028
     3  Na  -0.000033  -0.000028
     4  Na   0.893793  -0.000000
     5  Na  -0.778516  -0.000000
     6  Na  -0.671641   0.000000
     7  Na   0.556365  -0.000000
 Electronic spatial extent (au):  <R**2>=          73087.8620
 Charge=             -0.0000 electrons
 Dipole moment (field-independent basis, Debye):
    X=              0.1619    Y=              0.1405    Z=              0.1956  Tot=              0.2902
 Quadrupole moment (field-independent basis, Debye-Ang):
   XX=            -79.1770   YY=            -53.7042   ZZ=            -64.2195
   XY=              4.2251   XZ=             -2.0934   YZ=            -12.0607
 Traceless Quadrupole moment (field-independent basis, Debye-Ang):
   XX=            -13.4768   YY=             11.9960   ZZ=              1.4807
   XY=              4.2251   XZ=             -2.0934   YZ=            -12.0607
 Octapole moment (field-independent basis, Debye-Ang**2):
  XXX=             79.0563  YYY=           -201.4329  ZZZ=             29.3168  XYY=           -146.5898
  XXY=            102.9622  XXZ=             39.4718  XZZ=           -179.3535  YZZ=              7.7395
  YYZ=            -64.7174  XYZ=            151.2996
 Hexadecapole moment (field-independent basis, Debye-Ang**3):
 XXXX=         -94463.9351 YYYY=         -21678.8642 ZZZZ=          -1646.5859 XXXY=           1530.5531
 XXXZ=           -223.2181 YYYX=          -3318.6637 YYYZ=           -108.2182 ZZZX=           -369.6321
 ZZZY=           -388.3394 XXYY=         -19399.0672 XXZZ=         -14509.0893 YYZZ=          -4637.1422
 XXYZ=          -1726.4997 YYXZ=            270.8245 ZZXY=           -103.5740
 N-N= 1.346944032123D+02 E-N=-2.998109361521D+03  KE= 1.132815379249D+03
                          Isotropic Fermi Contact Couplings
        Atom                 a.u.       MegaHertz       Gauss      10(-4) cm-1
     1  Na(23)             0.79296     938.09914     334.73710     312.91619
     2  Na(23)             0.00000       0.00013       0.00005       0.00004
     3  Na(23)            -0.00000      -0.00016      -0.00006      -0.00005
     4  Na(23)             0.00000       0.00000       0.00000       0.00000
     5  Na(23)            -0.00000      -0.00000      -0.00000      -0.00000
     6  Na(23)             0.00000       0.00000       0.00000       0.00000
     7  Na(23)             0.00000       0.00000       0.00000       0.00000
 --------------------------------------------------------
       Center         ----  Spin Dipole Couplings  ----
                      3XX-RR        3YY-RR        3ZZ-RR
 --------------------------------------------------------
     1   Atom        0.000000     -0.000000      0.000000
     2   Atom       -0.000004      0.000011     -0.000007
     3   Atom       -0.000006      0.000017     -0.000011
     4   Atom        0.000006     -0.000003     -0.000003
     5   Atom        0.000005     -0.000002     -0.000003
     6   Atom        0.000004     -0.000002     -0.000003
     7   Atom        0.000004     -0.000001     -0.000003
 --------------------------------------------------------
                        XY            XZ            YZ
 --------------------------------------------------------
     1   Atom       -0.000000     -0.000000     -0.000000
     2   Atom        0.000008      0.000001      0.000001
     3   Atom        0.000012      0.000001      0.000002
     4   Atom        0.000002      0.000001      0.000000
     5   Atom        0.000003      0.000001      0.000000
     6   Atom        0.000003     -0.000000     -0.000000
     7   Atom        0.000003     -0.000001     -0.000000
 --------------------------------------------------------


 ---------------------------------------------------------------------------------
              Anisotropic Spin Dipole Couplings in Principal Axis System
 ---------------------------------------------------------------------------------

       Atom             a.u.   MegaHertz   Gauss  10(-4) cm-1        Axes

              Baa    -0.0000    -0.000    -0.000    -0.000  0.3275  0.9439  0.0421
     1 Na(23) Bbb     0.0000     0.000     0.000     0.000  0.5672 -0.2321  0.7902
              Bcc     0.0000     0.000     0.000     0.000  0.7557 -0.2349 -0.6114
 
              Baa    -0.0000    -0.001    -0.000    -0.000  0.8980 -0.4093  0.1616
     2 Na(23) Bbb    -0.0000    -0.001    -0.000    -0.000 -0.1731  0.0091  0.9849
              Bcc     0.0000     0.002     0.001     0.001  0.4045  0.9124  0.0627
 
              Baa    -0.0000    -0.002    -0.001    -0.001 -0.5434  0.1836  0.8192
     3 Na(23) Bbb    -0.0000    -0.002    -0.001    -0.001  0.7378 -0.3612  0.5703
              Bcc     0.0000     0.003     0.001     0.001  0.4006  0.9143  0.0608
 
              Baa    -0.0000    -0.000    -0.000    -0.000 -0.0728 -0.1678  0.9831
     4 Na(23) Bbb    -0.0000    -0.000    -0.000    -0.000 -0.2532  0.9566  0.1445
              Bcc     0.0000     0.001     0.000     0.000  0.9647  0.2384  0.1121
 
              Baa    -0.0000    -0.000    -0.000    -0.000  0.0307 -0.2904  0.9564
     5 Na(23) Bbb    -0.0000    -0.000    -0.000    -0.000 -0.3051  0.9085  0.2856
              Bcc     0.0000     0.001     0.000     0.000  0.9518  0.3006  0.0608
 
              Baa    -0.0000    -0.000    -0.000    -0.000  0.0426 -0.1102  0.9930
     6 Na(23) Bbb    -0.0000    -0.000    -0.000    -0.000 -0.3527  0.9283  0.1181
              Bcc     0.0000     0.001     0.000     0.000  0.9348  0.3552 -0.0007
 
              Baa    -0.0000    -0.000    -0.000    -0.000  0.1405 -0.1457  0.9793
     7 Na(23) Bbb    -0.0000    -0.000    -0.000    -0.000 -0.3829  0.9041  0.1894
              Bcc     0.0000     0.001     0.000     0.000  0.9130  0.4016 -0.0712
 

 ---------------------------------------------------------------------------------

 No NMR shielding tensors so no spin-rotation constants.
 Leave Link  601 at Tue Nov 21 11:47:20 2023, MaxMem=   104857600 cpu:              17.8 elap:              19.7
 (Enter /home/sekinelabo/g16/l701.exe)
 ... and contract with generalized density number  0.
 Compute integral first derivatives.
 Leave Link  701 at Tue Nov 21 11:47:28 2023, MaxMem=   104857600 cpu:               7.4 elap:               7.9
 (Enter /home/sekinelabo/g16/l702.exe)
 L702 exits ... SP integral derivatives will be done elsewhere.
 Leave Link  702 at Tue Nov 21 11:47:29 2023, MaxMem=   104857600 cpu:               0.7 elap:               0.9
 (Enter /home/sekinelabo/g16/l703.exe)
 Integral derivatives from FoFJK, PRISM(SPDF).
 Compute integral first derivatives, UseDBF=F ICtDFT=           0.
 Calling FoFJK, ICntrl=      2127 FMM=F ISym2X=0 I1Cent= 0 IOpClX= 1 NMat=1 NMatS=1 NMatT=0.
 FoFJK:  IHMeth= 1 ICntrl=    2127 DoSepK=F KAlg= 0 I1Cent=           0 FoldK=F
 IRaf=         0 NMat=       1 IRICut=       1 DoRegI=T DoRafI=F ISym2E= 0 IDoP0=0 IntGTp=1.
 FoFCou: FMM=F IPFlag=           0 FMFlag=      100000 FMFlg1=         800
         NFxFlg=           0 DoJE=F BraDBF=F KetDBF=F FulRan=T
         wScrn=  0.000000 ICntrl=      2127 IOpCl=  1 I1Cent=           0 NGrid=           0
         NMat0=    1 NMatS0=      1 NMatT0=    0 NMatD0=    1 NMtDS0=    0 NMtDT0=    0
 Symmetry not used in FoFCou.
 Leave Link  703 at Tue Nov 21 11:47:50 2023, MaxMem=   104857600 cpu:              23.3 elap:              21.1
 (Enter /home/sekinelabo/g16/l716.exe)
 Dipole        = 6.36867374D-02 5.52811793D-02 7.69630061D-02
 ***** Axes restored to original set *****
 -------------------------------------------------------------------
 Center     Atomic                   Forces (Hartrees/Bohr)
 Number     Number              X              Y              Z
 -------------------------------------------------------------------
      1       11          -0.000000006   -0.000000072    0.000000005
      2       11          -0.000113848    0.005616957    0.000010617
      3       11           0.000113850   -0.005616903   -0.000010575
      4       11           0.000480102    0.000532050   -0.000337589
      5       11           0.000481291    0.000516108   -0.000018943
      6       11          -0.003801008   -0.002633568    0.002215196
      7       11           0.002839619    0.001585428   -0.001858712
 -------------------------------------------------------------------
 Cartesian Forces:  Max     0.005616957 RMS     0.002231529
 Z-matrix is all fixed cartesians, so copy forces.
 Force constants in Cartesian coordinates: 
                1             2             3             4             5 
      1  0.100000D+01
      2  0.000000D+00  0.100000D+01
      3  0.000000D+00  0.000000D+00  0.100000D+01
      4  0.000000D+00  0.000000D+00  0.000000D+00  0.832412D-05
      5  0.000000D+00  0.000000D+00  0.000000D+00 -0.409981D-03  0.201924D-01
      6  0.000000D+00  0.000000D+00  0.000000D+00  0.000000D+00  0.376994D-04
      7  0.000000D+00  0.000000D+00  0.000000D+00 -0.832412D-05  0.409981D-03
      8  0.000000D+00  0.000000D+00  0.000000D+00  0.409981D-03 -0.201924D-01
      9  0.000000D+00  0.000000D+00  0.000000D+00  0.000000D+00 -0.376994D-04
     10  0.000000D+00  0.000000D+00  0.000000D+00  0.000000D+00  0.000000D+00
     11  0.000000D+00  0.000000D+00  0.000000D+00  0.000000D+00  0.000000D+00
     12  0.000000D+00  0.000000D+00  0.000000D+00  0.000000D+00  0.000000D+00
     13  0.000000D+00  0.000000D+00  0.000000D+00  0.000000D+00  0.000000D+00
     14  0.000000D+00  0.000000D+00  0.000000D+00  0.000000D+00  0.000000D+00
     15  0.000000D+00  0.000000D+00  0.000000D+00  0.000000D+00  0.000000D+00
     16  0.000000D+00  0.000000D+00  0.000000D+00  0.000000D+00  0.000000D+00
     17  0.000000D+00  0.000000D+00  0.000000D+00  0.000000D+00  0.000000D+00
     18  0.000000D+00  0.000000D+00  0.000000D+00  0.000000D+00  0.000000D+00
     19  0.000000D+00  0.000000D+00  0.000000D+00  0.000000D+00  0.000000D+00
     20  0.000000D+00  0.000000D+00  0.000000D+00  0.000000D+00  0.000000D+00
     21  0.000000D+00  0.000000D+00  0.000000D+00  0.000000D+00  0.000000D+00
                6             7             8             9            10 
      6  0.000000D+00
      7  0.000000D+00  0.832412D-05
      8 -0.376994D-04 -0.409981D-03  0.201924D-01
      9  0.000000D+00  0.000000D+00  0.376994D-04  0.000000D+00
     10  0.000000D+00  0.000000D+00  0.000000D+00  0.000000D+00  0.156148D-01
     11  0.000000D+00  0.000000D+00  0.000000D+00  0.000000D+00  0.115986D-01
     12  0.000000D+00  0.000000D+00  0.000000D+00  0.000000D+00 -0.461609D-02
     13  0.000000D+00  0.000000D+00  0.000000D+00  0.000000D+00 -0.192748D-01
     14  0.000000D+00  0.000000D+00  0.000000D+00  0.000000D+00 -0.893152D-02
     15  0.000000D+00  0.000000D+00  0.000000D+00  0.000000D+00  0.256335D-02
     16  0.000000D+00  0.000000D+00  0.000000D+00  0.000000D+00  0.340235D-02
     17  0.000000D+00  0.000000D+00  0.000000D+00  0.000000D+00 -0.253248D-02
     18  0.000000D+00  0.000000D+00  0.000000D+00  0.000000D+00  0.177986D-02
     19  0.000000D+00  0.000000D+00  0.000000D+00  0.000000D+00  0.257680D-03
     20  0.000000D+00  0.000000D+00  0.000000D+00  0.000000D+00 -0.134627D-03
     21  0.000000D+00  0.000000D+00  0.000000D+00  0.000000D+00  0.272880D-03
               11            12            13            14            15 
     11  0.205918D-01
     12 -0.855020D-02  0.890555D-02
     13 -0.996588D-02  0.220837D-02  0.362984D-01
     14 -0.224991D-01  0.883541D-02  0.139080D-01  0.390533D-01
     15  0.773296D-02 -0.138046D-01 -0.350355D-02 -0.967535D-02  0.286155D-01
     16 -0.110713D-02  0.307915D-02 -0.170053D-01 -0.539276D-02 -0.226238D-04
     17  0.163273D-02 -0.636003D-03 -0.214605D-02 -0.194045D-01 -0.773163D-03
     18  0.137386D-02  0.561006D-02  0.285149D-02 -0.221207D-02 -0.185701D-01
     19 -0.525619D-03 -0.671424D-03 -0.182960D-04  0.416242D-03  0.962824D-03
     20  0.274614D-03  0.350791D-03 -0.179610D-02  0.285032D-02  0.271555D-02
     21 -0.556624D-03 -0.711030D-03 -0.155630D-02  0.305201D-02  0.375919D-02
               16            17            18            19            20 
     16  0.268203D-01
     17  0.110037D-01  0.294060D-01
     18 -0.129701D-01  0.179121D-02  0.235919D-01
     19 -0.132173D-01 -0.632520D-02  0.833872D-02  0.129779D-01
     20 -0.450385D-02 -0.116342D-01 -0.953002D-03  0.643458D-02  0.850930D-02
     21  0.991354D-02 -0.382046D-03 -0.106319D-01 -0.863012D-02 -0.211334D-02
               21 
     21  0.758370D-02
 Leave Link  716 at Tue Nov 21 11:47:51 2023, MaxMem=   104857600 cpu:               0.7 elap:               0.6
 (Enter /home/sekinelabo/g16/l103.exe)

 GradGradGradGradGradGradGradGradGradGradGradGradGradGradGradGradGradGrad
 Berny optimization.
 Search for a local minimum.
 Step number   1 out of a maximum of    2
 All quantities printed in internal units (Hartrees-Bohrs-Radians)
 Second derivative matrix not updated -- first step.
 ITU=  0
     Eigenvalues ---   -0.00000  -0.00000   0.00000   0.00000   0.00000
     Eigenvalues ---    0.00966   0.01517   0.04040   0.04162   0.04899
     Eigenvalues ---    0.05450   0.07591   0.08803   0.47102   0.85714
 Eigenvalue     1 is  -8.88D-16 should be greater than     0.000000 Eigenvector:
                          Z3        Z7        X7        X3        X2
   1                    0.68904  -0.60143  -0.31567   0.12176   0.11892
                          Y6        X6        Z6        Y2        Y3
   1                   -0.10210   0.07922  -0.06677   0.06611   0.06483
 Eigenvalue     2 is  -3.33D-16 should be greater than     0.000000 Eigenvector:
                          Z3        Z2        Z7        X3        X6
   1                    0.46995  -0.44929   0.39451  -0.27621  -0.27535
                          Z6        X2        Z5        X7        X4
   1                   -0.25465   0.23037  -0.22302   0.19652   0.13988
 Eigenvalue     3 is   2.22D-16 Eigenvector:
                          X3        X2        X7        Z3        Z6
   1                    0.60044  -0.59783   0.25247   0.23759  -0.20731
                          Z5        Y7        Z7        Y4        X4
   1                   -0.17834  -0.16666   0.15032   0.11576  -0.10004
 Eigenvalue     4 is   4.44D-16 Eigenvector:
                          Z4        Z6        X6        X4        Z3
   1                    0.73119  -0.36862  -0.29082   0.24256  -0.23749
                          Z7        Y7        Z5        Y4        X7
   1                   -0.23075  -0.18782   0.10621   0.07238  -0.07109
 Eigenvalue     5 is   6.66D-16 Eigenvector:
                          Z2        Z6        Z5        X2        X6
   1                    0.78290  -0.35157  -0.33318   0.23603  -0.18599
                          Z4        X7        X3        Y6        Z3
   1                   -0.17425   0.08622  -0.08499   0.07655   0.06883
 Angle between quadratic step and forces=  12.25 degrees.
 Linear search not attempted -- first point.
 B after Tr=     0.000000   -0.000000    0.000000
         Rot=    1.000000    0.000000    0.000000    0.000000 Ang=   0.00 deg.
 Variable       Old X    -DE/DX   Delta X   Delta X   Delta X     New X
                                 (Linear)    (Quad)   (Total)
    X1       17.50346  -0.00000   0.00000  -0.00000  -0.00000  17.50346
    Y1       54.81925  -0.00000   0.00000  -0.00000  -0.00000  54.81925
    Z1       53.93430   0.00000   0.00000   0.00000   0.00000  53.93430
    X2       18.16473  -0.00011   0.00000  -0.00102  -0.00102  18.16371
    Y2        3.61833   0.00562   0.00000   0.13881   0.13881   3.75714
    Z2       55.49540   0.00001   0.00000   0.00157   0.00157  55.49697
    X3       18.03320   0.00011   0.00000   0.00063   0.00063  18.03384
    Y3       10.09622  -0.00562   0.00000  -0.13933  -0.13933   9.95690
    Z3       55.50749  -0.00001   0.00000  -0.00103  -0.00103  55.50646
    X4       13.28118   0.00048   0.00000   0.01173   0.01173  13.29292
    Y4       11.70442   0.00053   0.00000   0.00274   0.00274  11.70715
    Z4        2.24777  -0.00034   0.00000  -0.00845  -0.00845   2.23932
    X5        9.99522   0.00048   0.00000  -0.01360  -0.01360   9.98162
    Y5        7.42222   0.00052   0.00000   0.00052   0.00052   7.42274
    Z5        4.33896  -0.00002   0.00000   0.01199   0.01199   4.35095
    X6        5.76185  -0.00380   0.00000  -0.06528  -0.06528   5.69657
    Y6        3.01676  -0.00263   0.00000  -0.03861  -0.03861   2.97815
    Z6        6.16306   0.00222   0.00000   0.03363   0.03363   6.19669
    X7        0.99223   0.00284   0.00000   0.06754   0.06754   1.05977
    Y7        0.31689   0.00159   0.00000   0.03588   0.03588   0.35276
    Z7        9.33500  -0.00186   0.00000  -0.03771  -0.03771   9.29730
         Item               Value     Threshold  Converged?
 Maximum Force            0.005617     0.000450     NO 
 RMS     Force            0.002232     0.000300     NO 
 Maximum Displacement     0.139325     0.001800     NO 
 RMS     Displacement     0.050418     0.001200     NO 
 Predicted change in Energy=-1.154475D-03
 GradGradGradGradGradGradGradGradGradGradGradGradGradGradGradGradGradGrad

 Leave Link  103 at Tue Nov 21 11:47:53 2023, MaxMem=   104857600 cpu:               3.1 elap:               2.5
 (Enter /home/sekinelabo/g16/l9999.exe)
 1\1\GINC-SEKINELABO-XA7R-R37\Force\UB3LYP\6-311+G(d)\Na7(2)\SEKINELABO
 \21-Nov-2023\0\\#P B3LYP/6-311+g(d) force\\DPGEN\\0,2\Na,9.26243,29.00
 91,28.5408\Na,9.61236,1.91474,29.3669\Na,9.54276,5.34269,29.3733\Na,7.
 0281,6.19371,1.18947\Na,5.28924,3.92767,2.29608\Na,3.04904,1.5964,3.26
 135\Na,0.525066,0.16769,4.93987\\Version=ES64L-G16RevB.01\State=2-A\HF
 =-1136.0878286\S2=0.750009\S2-1=0.\S2A=0.75\RMSD=9.983e-09\RMSF=2.232e
 -03\Dipole=-0.0653382,0.0816267,0.0458619\Quadrupole=0.7424481,6.80759
 97,-7.5500477,7.9619869,-4.5646122,-6.8622813\PG=C01 [X(Na7)]\\@


 I DON'T PRETEND TO UNDERSTAND THE UNIVERSE --
 IT'S A GREAT DEAL BIGGER THAN I AM.
       -- ATTR. TO WILLIAM ALLINGHAM (1828-89)
 Job cpu time:       0 days  0 hours  7 minutes  6.1 seconds.
 Elapsed time:       0 days  0 hours  7 minutes 35.8 seconds.
 File lengths (MBytes):  RWF=     46 Int=      0 D2E=      0 Chk=      4 Scr=      1
 Normal termination of Gaussian 16 at Tue Nov 21 11:47:54 2023.
