 Entering Gaussian System, Link 0=g16
 Initial command:
 /home/sekinelabo/g16/l1.exe "/home/sekinelabo/g16temp/Gau-934133.inp" -scrdir="/home/sekinelabo/g16temp/"
 Entering Link 1 = /home/sekinelabo/g16/l1.exe PID=    934199.
  
 Copyright (c) 1988-2017, Gaussian, Inc.  All Rights Reserved.
  
 This is part of the Gaussian(R) 16 program.  It is based on
 the Gaussian(R) 09 system (copyright 2009, Gaussian, Inc.),
 the Gaussian(R) 03 system (copyright 2003, Gaussian, Inc.),
 the Gaussian(R) 98 system (copyright 1998, Gaussian, Inc.),
 the Gaussian(R) 94 system (copyright 1995, Gaussian, Inc.),
 the Gaussian 92(TM) system (copyright 1992, Gaussian, Inc.),
 the Gaussian 90(TM) system (copyright 1990, Gaussian, Inc.),
 the Gaussian 88(TM) system (copyright 1988, Gaussian, Inc.),
 the Gaussian 86(TM) system (copyright 1986, Carnegie Mellon
 University), and the Gaussian 82(TM) system (copyright 1983,
 Carnegie Mellon University). Gaussian is a federally registered
 trademark of Gaussian, Inc.
  
 This software contains proprietary and confidential information,
 including trade secrets, belonging to Gaussian, Inc.
  
 This software is provided under written license and may be
 used, copied, transmitted, or stored only in accord with that
 written license.
  
 The following legend is applicable only to US Government
 contracts under FAR:
  
                    RESTRICTED RIGHTS LEGEND
  
 Use, reproduction and disclosure by the US Government is
 subject to restrictions as set forth in subparagraphs (a)
 and (c) of the Commercial Computer Software - Restricted
 Rights clause in FAR 52.227-19.
  
 Gaussian, Inc.
 340 Quinnipiac St., Bldg. 40, Wallingford CT 06492
  
  
 ---------------------------------------------------------------
 Warning -- This program may not be used in any manner that
 competes with the business of Gaussian, Inc. or will provide
 assistance to any competitor of Gaussian, Inc.  The licensee
 of this program is prohibited from giving any competitor of
 Gaussian, Inc. access to this program.  By using this program,
 the user acknowledges that Gaussian, Inc. is engaged in the
 business of creating and licensing software in the field of
 computational chemistry and represents and warrants to the
 licensee that it is not a competitor of Gaussian, Inc. and that
 it will not use this program in any manner prohibited above.
 ---------------------------------------------------------------
  

 Cite this work as:
 Gaussian 16, Revision B.01,
 M. J. Frisch, G. W. Trucks, H. B. Schlegel, G. E. Scuseria, 
 M. A. Robb, J. R. Cheeseman, G. Scalmani, V. Barone, 
 G. A. Petersson, H. Nakatsuji, X. Li, M. Caricato, A. V. Marenich, 
 J. Bloino, B. G. Janesko, R. Gomperts, B. Mennucci, H. P. Hratchian, 
 J. V. Ortiz, A. F. Izmaylov, J. L. Sonnenberg, D. Williams-Young, 
 F. Ding, F. Lipparini, F. Egidi, J. Goings, B. Peng, A. Petrone, 
 T. Henderson, D. Ranasinghe, V. G. Zakrzewski, J. Gao, N. Rega, 
 G. Zheng, W. Liang, M. Hada, M. Ehara, K. Toyota, R. Fukuda, 
 J. Hasegawa, M. Ishida, T. Nakajima, Y. Honda, O. Kitao, H. Nakai, 
 T. Vreven, K. Throssell, J. A. Montgomery, Jr., J. E. Peralta, 
 F. Ogliaro, M. J. Bearpark, J. J. Heyd, E. N. Brothers, K. N. Kudin, 
 V. N. Staroverov, T. A. Keith, R. Kobayashi, J. Normand, 
 K. Raghavachari, A. P. Rendell, J. C. Burant, S. S. Iyengar, 
 J. Tomasi, M. Cossi, J. M. Millam, M. Klene, C. Adamo, R. Cammi, 
 J. W. Ochterski, R. L. Martin, K. Morokuma, O. Farkas, 
 J. B. Foresman, and D. J. Fox, Gaussian, Inc., Wallingford CT, 2016.
 
 ******************************************
 Gaussian 16:  ES64L-G16RevB.01 20-Dec-2017
                21-Nov-2023 
 ******************************************
 %nprocshared=14
 Will use up to   14 processors via shared memory.
 -------------------------
 #P B3LYP/6-311+g(d) force
 -------------------------
 1/10=7,30=1,38=1/1,3;
 2/12=2,17=6,18=5,40=1/2;
 3/5=4,6=6,7=11,11=2,25=1,30=1,71=1,74=-5/1,2,3;
 4//1;
 5/5=2,38=5/2;
 6/7=2,8=2,9=2,10=2,28=1/1;
 7/29=1/1,2,3,16;
 1/10=7,30=1/3;
 99//99;
 Leave Link    1 at Tue Nov 21 11:40:17 2023, MaxMem=           0 cpu:               0.5 elap:               0.4
 (Enter /home/sekinelabo/g16/l101.exe)
 -----
 DPGEN
 -----
 Symbolic Z-matrix:
 Charge =  0 Multiplicity = 2
 Na                    8.65232   29.7752   29.4115 
 Na                    10.7649   2.24775   29.2313 
 Na                    9.77118   5.63063   29.1498 
 Na                    7.15772   5.24027   1.07051 
 Na                    5.19398   3.20938   2.24339 
 Na                    3.05197   1.38272   3.76423 
 Na                    29.717    0.66598   4.09691 
 
 ITRead=  0  0  0  0  0  0  0
 MicOpt= -1 -1 -1 -1 -1 -1 -1
 NAtoms=      7 NQM=        7 NQMF=       0 NMMI=      0 NMMIF=      0
                NMic=       0 NMicF=      0.
                    Isotopes and Nuclear Properties:
 (Nuclear quadrupole moments (NQMom) in fm**2, nuclear magnetic moments (NMagM)
  in nuclear magnetons)

  Atom         1           2           3           4           5           6           7
 IAtWgt=          23          23          23          23          23          23          23
 AtmWgt=  22.9897697  22.9897697  22.9897697  22.9897697  22.9897697  22.9897697  22.9897697
 NucSpn=           3           3           3           3           3           3           3
 AtZEff=  -0.0000000  -0.0000000  -0.0000000  -0.0000000  -0.0000000  -0.0000000  -0.0000000
 NQMom=   10.4000000  10.4000000  10.4000000  10.4000000  10.4000000  10.4000000  10.4000000
 NMagM=    2.2175200   2.2175200   2.2175200   2.2175200   2.2175200   2.2175200   2.2175200
 AtZNuc=  11.0000000  11.0000000  11.0000000  11.0000000  11.0000000  11.0000000  11.0000000
 Leave Link  101 at Tue Nov 21 11:40:20 2023, MaxMem=   104857600 cpu:               2.5 elap:               2.6
 (Enter /home/sekinelabo/g16/l103.exe)

 GradGradGradGradGradGradGradGradGradGradGradGradGradGradGradGradGradGrad
 Berny optimization.
 Initialization pass.
 Trust Radius=3.00D-01 FncErr=1.00D-07 GrdErr=1.00D-07 EigMax=2.50D+02 EigMin=1.00D-04
 Number of steps in this run=      2 maximum allowed number of steps=      2.
 GradGradGradGradGradGradGradGradGradGradGradGradGradGradGradGradGradGrad

 Leave Link  103 at Tue Nov 21 11:40:20 2023, MaxMem=   104857600 cpu:               0.6 elap:               0.4
 (Enter /home/sekinelabo/g16/l202.exe)
                          Input orientation:                          
 ---------------------------------------------------------------------
 Center     Atomic      Atomic             Coordinates (Angstroms)
 Number     Number       Type             X           Y           Z
 ---------------------------------------------------------------------
      1         11           0        8.652320   29.775200   29.411500
      2         11           0       10.764900    2.247750   29.231300
      3         11           0        9.771180    5.630630   29.149800
      4         11           0        7.157720    5.240270    1.070510
      5         11           0        5.193980    3.209380    2.243390
      6         11           0        3.051970    1.382720    3.764230
      7         11           0       29.717000    0.665983    4.096910
 ---------------------------------------------------------------------
                    Distance matrix (angstroms):
                    1          2          3          4          5
     1  Na   0.000000
     2  Na  27.608983   0.000000
     3  Na  24.171897   3.526755   0.000000
     4  Na  37.515441  28.548153  28.203352   0.000000
     5  Na  38.155067  27.573668  27.400148   3.058829   0.000000
     6  Na  38.668841  26.623471  26.601122   6.244518   3.199664
     7  Na  43.953336  31.518592  32.405721  23.216466  24.724136
                    6          7
     6  Na   0.000000
     7  Na  26.676735   0.000000
 Stoichiometry    Na7(2)
 Framework group  C1[X(Na7)]
 Deg. of freedom    15
 Full point group                 C1      NOp   1
 Largest Abelian subgroup         C1      NOp   1
 Largest concise Abelian subgroup C1      NOp   1
                         Standard orientation:                         
 ---------------------------------------------------------------------
 Center     Atomic      Atomic             Coordinates (Angstroms)
 Number     Number       Type             X           Y           Z
 ---------------------------------------------------------------------
      1         11           0       24.509880   -6.273684   11.012569
      2         11           0       10.926768    6.661228   -9.246826
      3         11           0       12.568451    4.408098   -7.086669
      4         11           0      -11.893142   -6.338614    1.944817
      5         11           0      -11.678884   -6.842241   -1.064650
      6         11           0      -11.047519   -7.474864   -4.136948
      7         11           0      -13.385553   15.860076    8.577705
 ---------------------------------------------------------------------
 Rotational constants (GHZ):           0.0258566           0.0121467           0.0112459
 Leave Link  202 at Tue Nov 21 11:40:21 2023, MaxMem=   104857600 cpu:               0.8 elap:               0.9
 (Enter /home/sekinelabo/g16/l301.exe)
 Standard basis: 6-311+G(d) (5D, 7F)
 Ernie: Thresh=  0.10000D-02 Tol=  0.10000D-05 Strict=F.
 There are   217 symmetry adapted cartesian basis functions of A   symmetry.
 There are   210 symmetry adapted basis functions of A   symmetry.
   210 basis functions,   350 primitive gaussians,   217 cartesian basis functions
    39 alpha electrons       38 beta electrons
       nuclear repulsion energy       106.5595807022 Hartrees.
 IExCor=  402 DFT=T Ex+Corr=B3LYP ExCW=0 ScaHFX=  0.200000
 ScaDFX=  0.800000  0.720000  1.000000  0.810000 ScalE2=  1.000000  1.000000
 IRadAn=      5 IRanWt=     -1 IRanGd=            0 ICorTp=0 IEmpDi=  4
 NAtoms=    7 NActive=    7 NUniq=    7 SFac= 1.00D+00 NAtFMM=   60 NAOKFM=F Big=F
 Integral buffers will be    131072 words long.
 Raffenetti 2 integral format.
 Two-electron integral symmetry is turned on.
 Leave Link  301 at Tue Nov 21 11:40:22 2023, MaxMem=   104857600 cpu:               0.8 elap:               0.8
 (Enter /home/sekinelabo/g16/l302.exe)
 NPDir=0 NMtPBC=     1 NCelOv=     1 NCel=       1 NClECP=     1 NCelD=      1
         NCelK=      1 NCelE2=     1 NClLst=     1 CellRange=     0.0.
 One-electron integrals computed using PRISM.
 One-electron integral symmetry used in STVInt
 NBasis=   210 RedAO= T EigKep=  3.61D-06  NBF=   210
 NBsUse=   210 1.00D-06 EigRej= -1.00D+00 NBFU=   210
 Precomputing XC quadrature grid using
 IXCGrd= 4 IRadAn=           5 IRanWt=          -1 IRanGd=           0 AccXCQ= 0.00D+00.
 Generated NRdTot=       0 NPtTot=           0 NUsed=           0 NTot=          32
 NSgBfM=   158   158   158   158   158 MxSgAt=     7 MxSgA2=     7.
 Leave Link  302 at Tue Nov 21 11:40:54 2023, MaxMem=   104857600 cpu:              29.7 elap:              31.6
 (Enter /home/sekinelabo/g16/l303.exe)
 DipDrv:  MaxL=1.
 Leave Link  303 at Tue Nov 21 11:40:57 2023, MaxMem=   104857600 cpu:               2.5 elap:               2.7
 (Enter /home/sekinelabo/g16/l401.exe)
 ExpMin= 7.60D-03 ExpMax= 3.62D+04 ExpMxC= 1.21D+03 IAcc=3 IRadAn=         5 AccDes= 0.00D+00
 Harris functional with IExCor=  402 and IRadAn=       5 diagonalized for initial guess.
 HarFok:  IExCor=  402 AccDes= 0.00D+00 IRadAn=         5 IDoV= 1 UseB2=F ITyADJ=14
 ICtDFT=  3500011 ScaDFX=  1.000000  1.000000  1.000000  1.000000
 FoFCou: FMM=F IPFlag=           0 FMFlag=      100000 FMFlg1=           0
         NFxFlg=           0 DoJE=T BraDBF=F KetDBF=T FulRan=T
         wScrn=  0.000000 ICntrl=       500 IOpCl=  0 I1Cent=   200000004 NGrid=           0
         NMat0=    1 NMatS0=      1 NMatT0=    0 NMatD0=    1 NMtDS0=    0 NMtDT0=    0
 Petite list used in FoFCou.
 Harris En= -1135.83325669440    
 JPrj=0 DoOrth=F DoCkMO=F.
 Initial guess <Sx>= 0.0000 <Sy>= 0.0000 <Sz>= 0.5000 <S**2>= 0.7500 S= 0.5000
 Leave Link  401 at Tue Nov 21 11:41:14 2023, MaxMem=   104857600 cpu:              16.1 elap:              17.3
 (Enter /home/sekinelabo/g16/l502.exe)
 Integral symmetry usage will be decided dynamically.
 UHF open shell SCF:
 Using DIIS extrapolation, IDIIS=  1040.
 NGot=   104857600 LenX=   104758426 LenY=   104710896
 Requested convergence on RMS density matrix=1.00D-08 within 128 cycles.
 Requested convergence on MAX density matrix=1.00D-06.
 Requested convergence on             energy=1.00D-06.
 No special actions if energy rises.
 Fock matrices will be formed incrementally for  20 cycles.

 Cycle   1  Pass 1  IDiag  1:
 FoFJK:  IHMeth= 1 ICntrl=       0 DoSepK=F KAlg= 0 I1Cent=           0 FoldK=F
 IRaf= 420000000 NMat=       1 IRICut=       1 DoRegI=T DoRafI=F ISym2E= 0 IDoP0=0 IntGTp=1.
 FoFCou: FMM=F IPFlag=           0 FMFlag=      100000 FMFlg1=           0
         NFxFlg=           0 DoJE=F BraDBF=F KetDBF=F FulRan=T
         wScrn=  0.000000 ICntrl=         0 IOpCl=  1 I1Cent=           0 NGrid=           0
         NMat0=    1 NMatS0=      1 NMatT0=    0 NMatD0=    1 NMtDS0=    0 NMtDT0=    0
 Symmetry not used in FoFCou.
 E= -1135.87696688494    
 DIIS: error= 2.05D-02 at cycle   1 NSaved=   1.
 NSaved= 1 IEnMin= 1 EnMin= -1135.87696688494     IErMin= 1 ErrMin= 2.05D-02
 ErrMax= 2.05D-02  0.00D+00 EMaxC= 1.00D-01 BMatC= 1.93D-01 BMatP= 1.93D-01
 IDIUse=3 WtCom= 7.95D-01 WtEn= 2.05D-01
 Coeff-Com:  0.100D+01
 Coeff-En:   0.100D+01
 Coeff:      0.100D+01
 Gap=    -0.121 Goal=   None    Shift=    0.000
 Gap=    -0.083 Goal=   None    Shift=    0.000
 GapD=   -0.121 DampG=0.250 DampE=0.500 DampFc=0.2500 IDamp=-1.
 Damping current iteration by 2.50D-01
 RMSDP=2.12D-02 MaxDP=1.52D+00              OVMax= 1.00D+00

 Cycle   2  Pass 1  IDiag  1:
 RMSU=  4.00D-03    CP:  8.74D-01
 E= -1135.79835621847     Delta-E=        0.078610666472 Rises=F Damp=T
 DIIS: error= 1.47D-02 at cycle   2 NSaved=   2.
 NSaved= 2 IEnMin= 1 EnMin= -1135.87696688494     IErMin= 2 ErrMin= 1.47D-02
 ErrMax= 1.47D-02  0.00D+00 EMaxC= 1.00D-01 BMatC= 7.86D-02 BMatP= 1.93D-01
 IDIUse=3 WtCom= 8.53D-01 WtEn= 1.47D-01
 Coeff-Com: -0.506D+00 0.151D+01
 Coeff-En:   0.618D+00 0.382D+00
 Coeff:     -0.341D+00 0.134D+01
 Gap=    -0.380 Goal=   None    Shift=    0.000
 Gap=     0.019 Goal=   None    Shift=    0.000
 RMSDP=8.70D-03 MaxDP=6.78D-01 DE= 7.86D-02 OVMax= 1.00D+00

 Cycle   3  Pass 1  IDiag  1:
 RMSU=  2.92D-03    CP:  1.08D+00 -4.54D-01
 E= -1135.87265405394     Delta-E=       -0.074297835476 Rises=F Damp=F
 DIIS: error= 1.28D-02 at cycle   3 NSaved=   3.
 NSaved= 3 IEnMin= 1 EnMin= -1135.87696688494     IErMin= 3 ErrMin= 1.28D-02
 ErrMax= 1.28D-02  0.00D+00 EMaxC= 1.00D-01 BMatC= 7.84D-02 BMatP= 7.86D-02
 IDIUse=3 WtCom= 8.72D-01 WtEn= 1.28D-01
 EnCoef did    35 forward-backward iterations
 Coeff-Com: -0.373D+00 0.900D+00 0.473D+00
 Coeff-En:   0.131D+00 0.389D+00 0.480D+00
 Coeff:     -0.309D+00 0.835D+00 0.474D+00
 Gap=    -0.023 Goal=   None    Shift=    0.000
 Gap=    -0.023 Goal=   None    Shift=    0.000
 RMSDP=2.19D-02 MaxDP=1.74D+00 DE=-7.43D-02 OVMax= 1.00D+00

 Cycle   4  Pass 1  IDiag  1:
 RMSU=  9.34D-03    CP:  5.41D-01  2.49D+00 -8.23D-01
 E= -1135.58782592418     Delta-E=        0.284828129758 Rises=F Damp=F
 DIIS: error= 1.64D-02 at cycle   4 NSaved=   4.
 NSaved= 4 IEnMin= 1 EnMin= -1135.87696688494     IErMin= 3 ErrMin= 1.28D-02
 ErrMax= 1.64D-02  0.00D+00 EMaxC= 1.00D-01 BMatC= 4.18D-02 BMatP= 7.84D-02
 IDIUse=3 WtCom= 8.36D-01 WtEn= 1.64D-01
 EnCoef did    39 forward-backward iterations
 Coeff-Com: -0.294D+00 0.682D+00 0.325D+00 0.287D+00
 Coeff-En:   0.130D+00 0.354D+00 0.373D+00 0.143D+00
 Coeff:     -0.225D+00 0.628D+00 0.333D+00 0.263D+00
 Gap=    -0.086 Goal=   None    Shift=    0.000
 Gap=    -0.059 Goal=   None    Shift=    0.000
 RMSDP=1.26D-02 MaxDP=7.88D-01 DE= 2.85D-01 OVMax= 1.00D+00

 Cycle   5  Pass 1  IDiag  1:
 RMSU=  4.14D-03    CP:  8.11D-01  1.00D+00 -2.60D-01  2.51D-01
 E= -1135.70343579784     Delta-E=       -0.115609873654 Rises=F Damp=F
 DIIS: error= 1.20D-02 at cycle   5 NSaved=   5.
 NSaved= 5 IEnMin= 1 EnMin= -1135.87696688494     IErMin= 5 ErrMin= 1.20D-02
 ErrMax= 1.20D-02  0.00D+00 EMaxC= 1.00D-01 BMatC= 2.75D-02 BMatP= 4.18D-02
 IDIUse=3 WtCom= 8.80D-01 WtEn= 1.20D-01
 Rare condition: small coef for last iteration: -0.444D-15
 Coeff-Com: -0.218D+00 0.442D+00 0.132D+00 0.276D+00 0.367D+00
 Coeff-En:   0.493D-01 0.336D+00 0.302D+00 0.136D+00 0.177D+00
 Coeff:     -0.218D+00 0.442D+00 0.132D+00 0.276D+00 0.367D+00
 Gap=     0.022 Goal=   None    Shift=    0.000
 Gap=    -0.087 Goal=   None    Shift=    0.000
 RMSDP=9.96D-03 MaxDP=8.09D-01 DE=-1.16D-01 OVMax= 1.00D+00

 Cycle   6  Pass 1  IDiag  1:
 RMSU=  6.43D-03    CP:  6.51D-01  2.30D+00 -3.35D-01  3.06D-01  1.90D-01
 E= -1135.86178964832     Delta-E=       -0.158353850482 Rises=F Damp=F
 DIIS: error= 1.31D-02 at cycle   6 NSaved=   6.
 NSaved= 6 IEnMin= 1 EnMin= -1135.87696688494     IErMin= 5 ErrMin= 1.20D-02
 ErrMax= 1.31D-02  0.00D+00 EMaxC= 1.00D-01 BMatC= 2.30D-02 BMatP= 2.75D-02
 IDIUse=3 WtCom= 8.80D-01 WtEn= 1.20D-01
 EnCoef did     9 forward-backward iterations
 Coeff-Com: -0.998D-01 0.212D+00 0.997D-01 0.203D+00 0.308D+00 0.276D+00
 Coeff-En:   0.000D+00 0.000D+00 0.164D-01 0.141D+00 0.339D+00 0.503D+00
 Coeff:     -0.879D-01 0.187D+00 0.898D-01 0.196D+00 0.312D+00 0.304D+00
 Gap=     0.026 Goal=   None    Shift=    0.000
 Gap=     0.009 Goal=   None    Shift=    0.000
 RMSDP=4.03D-03 MaxDP=7.58D-01 DE=-1.58D-01 OVMax= 1.00D+00

 Cycle   7  Pass 1  IDiag  1:
 RMSU=  2.86D-03    CP:  6.37D-01  2.12D+00 -5.76D-01  4.89D-01  3.78D-01
                    CP:  7.14D-01
 E= -1136.06524051343     Delta-E=       -0.203450865109 Rises=F Damp=F
 DIIS: error= 2.30D-03 at cycle   7 NSaved=   7.
 NSaved= 7 IEnMin= 7 EnMin= -1136.06524051343     IErMin= 7 ErrMin= 2.30D-03
 ErrMax= 2.30D-03  0.00D+00 EMaxC= 1.00D-01 BMatC= 9.21D-04 BMatP= 2.30D-02
 IDIUse=3 WtCom= 9.77D-01 WtEn= 2.30D-02
 Coeff-Com: -0.244D-01 0.377D-01 0.204D-01-0.701D-02 0.841D-01 0.242D-01
 Coeff-Com:  0.865D+00
 Coeff-En:   0.000D+00 0.000D+00 0.000D+00 0.000D+00 0.000D+00 0.000D+00
 Coeff-En:   0.100D+01
 Coeff:     -0.238D-01 0.369D-01 0.199D-01-0.685D-02 0.821D-01 0.236D-01
 Coeff:      0.868D+00
 Gap=     0.042 Goal=   None    Shift=    0.000
 Gap=     0.048 Goal=   None    Shift=    0.000
 RMSDP=1.47D-03 MaxDP=1.56D-01 DE=-2.03D-01 OVMax= 4.20D-02

 Cycle   8  Pass 1  IDiag  1:
 RMSU=  8.57D-04    CP:  6.61D-01  1.98D+00 -5.18D-01  4.56D-01  3.64D-01
                    CP:  8.28D-01  1.01D+00
 E= -1136.06640092636     Delta-E=       -0.001160412930 Rises=F Damp=F
 DIIS: error= 8.99D-04 at cycle   8 NSaved=   8.
 NSaved= 8 IEnMin= 8 EnMin= -1136.06640092636     IErMin= 8 ErrMin= 8.99D-04
 ErrMax= 8.99D-04  0.00D+00 EMaxC= 1.00D-01 BMatC= 2.60D-04 BMatP= 9.21D-04
 IDIUse=3 WtCom= 9.91D-01 WtEn= 8.99D-03
 Coeff-Com: -0.159D-01 0.235D-01-0.357D-02-0.869D-02 0.531D-01-0.326D-01
 Coeff-Com:  0.184D+00 0.801D+00
 Coeff-En:   0.000D+00 0.000D+00 0.000D+00 0.000D+00 0.000D+00 0.000D+00
 Coeff-En:   0.000D+00 0.100D+01
 Coeff:     -0.157D-01 0.233D-01-0.354D-02-0.861D-02 0.526D-01-0.323D-01
 Coeff:      0.182D+00 0.802D+00
 Gap=     0.045 Goal=   None    Shift=    0.000
 Gap=     0.054 Goal=   None    Shift=    0.000
 RMSDP=2.89D-04 MaxDP=2.61D-02 DE=-1.16D-03 OVMax= 1.51D-02

 Cycle   9  Pass 1  IDiag  1:
 RMSU=  2.46D-04    CP:  6.62D-01  1.98D+00 -5.44D-01  4.46D-01  3.65D-01
                    CP:  8.31D-01  1.02D+00  1.10D+00
 E= -1136.06653761986     Delta-E=       -0.000136693506 Rises=F Damp=F
 DIIS: error= 8.48D-04 at cycle   9 NSaved=   9.
 NSaved= 9 IEnMin= 9 EnMin= -1136.06653761986     IErMin= 9 ErrMin= 8.48D-04
 ErrMax= 8.48D-04  0.00D+00 EMaxC= 1.00D-01 BMatC= 9.63D-05 BMatP= 2.60D-04
 IDIUse=3 WtCom= 9.92D-01 WtEn= 8.48D-03
 Coeff-Com: -0.444D-02 0.646D-02-0.326D-02-0.532D-02 0.372D-01-0.234D-01
 Coeff-Com: -0.116D-01 0.167D+00 0.838D+00
 Coeff-En:   0.000D+00 0.000D+00 0.000D+00 0.000D+00 0.000D+00 0.000D+00
 Coeff-En:   0.000D+00 0.000D+00 0.100D+01
 Coeff:     -0.441D-02 0.641D-02-0.323D-02-0.528D-02 0.369D-01-0.232D-01
 Coeff:     -0.115D-01 0.165D+00 0.839D+00
 Gap=     0.052 Goal=   None    Shift=    0.000
 Gap=     0.053 Goal=   None    Shift=    0.000
 RMSDP=2.52D-04 MaxDP=2.80D-02 DE=-1.37D-04 OVMax= 9.07D-03

 Cycle  10  Pass 1  IDiag  1:
 RMSU=  1.43D-04    CP:  6.58D-01  2.00D+00 -5.65D-01  4.48D-01  3.77D-01
                    CP:  8.16D-01  1.02D+00  1.05D+00  1.36D+00
 E= -1136.06664482385     Delta-E=       -0.000107203987 Rises=F Damp=F
 DIIS: error= 6.49D-04 at cycle  10 NSaved=  10.
 NSaved=10 IEnMin=10 EnMin= -1136.06664482385     IErMin=10 ErrMin= 6.49D-04
 ErrMax= 6.49D-04  0.00D+00 EMaxC= 1.00D-01 BMatC= 5.17D-05 BMatP= 9.63D-05
 IDIUse=3 WtCom= 9.94D-01 WtEn= 6.49D-03
 Coeff-Com: -0.892D-03 0.126D-02 0.484D-04-0.396D-02 0.252D-01-0.159D-01
 Coeff-Com: -0.173D-01-0.122D-01 0.370D-01 0.987D+00
 Coeff-En:   0.000D+00 0.000D+00 0.000D+00 0.000D+00 0.000D+00 0.000D+00
 Coeff-En:   0.000D+00 0.000D+00 0.000D+00 0.100D+01
 Coeff:     -0.886D-03 0.125D-02 0.481D-04-0.394D-02 0.251D-01-0.158D-01
 Coeff:     -0.171D-01-0.122D-01 0.368D-01 0.987D+00
 Gap=     0.051 Goal=   None    Shift=    0.000
 Gap=     0.050 Goal=   None    Shift=    0.000
 RMSDP=1.18D-04 MaxDP=1.34D-02 DE=-1.07D-04 OVMax= 8.25D-03

 Cycle  11  Pass 1  IDiag  1:
 RMSU=  8.83D-05    CP:  6.58D-01  2.00D+00 -5.65D-01  4.50D-01  3.83D-01
                    CP:  8.11D-01  1.02D+00  1.04D+00  1.59D+00  1.07D+00
 E= -1136.06670286989     Delta-E=       -0.000058046042 Rises=F Damp=F
 DIIS: error= 4.53D-04 at cycle  11 NSaved=  11.
 NSaved=11 IEnMin=11 EnMin= -1136.06670286989     IErMin=11 ErrMin= 4.53D-04
 ErrMax= 4.53D-04  0.00D+00 EMaxC= 1.00D-01 BMatC= 3.13D-05 BMatP= 5.17D-05
 IDIUse=3 WtCom= 9.95D-01 WtEn= 4.53D-03
 Coeff-Com:  0.609D-03-0.772D-03 0.998D-03-0.204D-02 0.137D-01-0.113D-01
 Coeff-Com:  0.747D-02-0.128D-01-0.500D+00 0.440D+00 0.106D+01
 Coeff-En:   0.000D+00 0.000D+00 0.000D+00 0.000D+00 0.000D+00 0.000D+00
 Coeff-En:   0.000D+00 0.000D+00 0.000D+00 0.000D+00 0.100D+01
 Coeff:      0.607D-03-0.769D-03 0.994D-03-0.204D-02 0.136D-01-0.113D-01
 Coeff:      0.744D-02-0.127D-01-0.498D+00 0.438D+00 0.106D+01
 Gap=     0.054 Goal=   None    Shift=    0.000
 Gap=     0.048 Goal=   None    Shift=    0.000
 RMSDP=1.33D-04 MaxDP=1.37D-02 DE=-5.80D-05 OVMax= 6.77D-03

 Cycle  12  Pass 1  IDiag  1:
 RMSU=  4.12D-05    CP:  6.57D-01  2.00D+00 -5.72D-01  4.53D-01  3.92D-01
                    CP:  8.05D-01  1.03D+00  1.03D+00  1.71D+00  1.74D+00
                    CP:  1.31D+00
 E= -1136.06674328411     Delta-E=       -0.000040414221 Rises=F Damp=F
 DIIS: error= 2.73D-04 at cycle  12 NSaved=  12.
 NSaved=12 IEnMin=12 EnMin= -1136.06674328411     IErMin=12 ErrMin= 2.73D-04
 ErrMax= 2.73D-04  0.00D+00 EMaxC= 1.00D-01 BMatC= 1.20D-05 BMatP= 3.13D-05
 IDIUse=3 WtCom= 9.97D-01 WtEn= 2.73D-03
 Coeff-Com:  0.803D-03-0.884D-03 0.293D-03-0.379D-03 0.438D-02-0.873D-02
 Coeff-Com:  0.225D-01 0.118D-01-0.203D+00-0.348D+00 0.374D+00 0.115D+01
 Coeff-En:   0.000D+00 0.000D+00 0.000D+00 0.000D+00 0.000D+00 0.000D+00
 Coeff-En:   0.000D+00 0.000D+00 0.000D+00 0.000D+00 0.000D+00 0.100D+01
 Coeff:      0.801D-03-0.882D-03 0.293D-03-0.378D-03 0.437D-02-0.871D-02
 Coeff:      0.225D-01 0.118D-01-0.202D+00-0.347D+00 0.373D+00 0.115D+01
 Gap=     0.057 Goal=   None    Shift=    0.000
 Gap=     0.046 Goal=   None    Shift=    0.000
 RMSDP=1.05D-04 MaxDP=1.09D-02 DE=-4.04D-05 OVMax= 4.49D-03

 Cycle  13  Pass 1  IDiag  1:
 RMSU=  2.52D-05    CP:  6.56D-01  2.00D+00 -5.78D-01  4.55D-01  3.99D-01
                    CP:  7.99D-01  1.03D+00  1.01D+00  1.87D+00  2.00D+00
                    CP:  1.89D+00  1.59D+00
 E= -1136.06676104880     Delta-E=       -0.000017764691 Rises=F Damp=F
 DIIS: error= 1.64D-04 at cycle  13 NSaved=  13.
 NSaved=13 IEnMin=13 EnMin= -1136.06676104880     IErMin=13 ErrMin= 1.64D-04
 ErrMax= 1.64D-04  0.00D+00 EMaxC= 1.00D-01 BMatC= 2.78D-06 BMatP= 1.20D-05
 IDIUse=3 WtCom= 9.98D-01 WtEn= 1.64D-03
 Coeff-Com: -0.462D-03 0.540D-03 0.182D-03 0.686D-03 0.748D-03-0.411D-02
 Coeff-Com:  0.196D-01 0.238D-01 0.833D-01-0.233D+00-0.278D+00 0.178D+00
 Coeff-Com:  0.121D+01
 Coeff-En:   0.000D+00 0.000D+00 0.000D+00 0.000D+00 0.000D+00 0.000D+00
 Coeff-En:   0.000D+00 0.000D+00 0.000D+00 0.000D+00 0.000D+00 0.000D+00
 Coeff-En:   0.100D+01
 Coeff:     -0.461D-03 0.539D-03 0.182D-03 0.685D-03 0.747D-03-0.410D-02
 Coeff:      0.196D-01 0.237D-01 0.832D-01-0.233D+00-0.278D+00 0.178D+00
 Coeff:      0.121D+01
 Gap=     0.059 Goal=   None    Shift=    0.000
 Gap=     0.045 Goal=   None    Shift=    0.000
 RMSDP=6.03D-05 MaxDP=8.55D-03 DE=-1.78D-05 OVMax= 2.84D-03

 Cycle  14  Pass 1  IDiag  1:
 RMSU=  2.14D-05    CP:  6.56D-01  2.00D+00 -5.76D-01  4.56D-01  4.01D-01
                    CP:  8.00D-01  1.03D+00  1.03D+00  1.86D+00  2.01D+00
                    CP:  2.29D+00  2.16D+00  1.35D+00
 E= -1136.06676560190     Delta-E=       -0.000004553098 Rises=F Damp=F
 DIIS: error= 5.42D-05 at cycle  14 NSaved=  14.
 NSaved=14 IEnMin=14 EnMin= -1136.06676560190     IErMin=14 ErrMin= 5.42D-05
 ErrMax= 5.42D-05  0.00D+00 EMaxC= 1.00D-01 BMatC= 5.07D-07 BMatP= 2.78D-06
 IDIUse=1 WtCom= 1.00D+00 WtEn= 0.00D+00
 Coeff-Com: -0.499D-03 0.531D-03 0.708D-04 0.555D-03 0.193D-03-0.179D-02
 Coeff-Com:  0.118D-01 0.187D-01 0.560D-01-0.826D-01-0.181D+00-0.853D-01
 Coeff-Com:  0.587D+00 0.676D+00
 Coeff:     -0.499D-03 0.531D-03 0.708D-04 0.555D-03 0.193D-03-0.179D-02
 Coeff:      0.118D-01 0.187D-01 0.560D-01-0.826D-01-0.181D+00-0.853D-01
 Coeff:      0.587D+00 0.676D+00
 Gap=     0.059 Goal=   None    Shift=    0.000
 Gap=     0.045 Goal=   None    Shift=    0.000
 RMSDP=2.77D-05 MaxDP=2.81D-03 DE=-4.55D-06 OVMax= 1.15D-03

 Cycle  15  Pass 1  IDiag  1:
 RMSU=  1.09D-05    CP:  6.57D-01  2.00D+00 -5.75D-01  4.57D-01  4.01D-01
                    CP:  8.01D-01  1.03D+00  1.04D+00  1.81D+00  2.07D+00
                    CP:  2.30D+00  2.29D+00  1.78D+00  9.34D-01
 E= -1136.06676631917     Delta-E=       -0.000000717270 Rises=F Damp=F
 DIIS: error= 1.87D-05 at cycle  15 NSaved=  15.
 NSaved=15 IEnMin=15 EnMin= -1136.06676631917     IErMin=15 ErrMin= 1.87D-05
 ErrMax= 1.87D-05  0.00D+00 EMaxC= 1.00D-01 BMatC= 7.21D-08 BMatP= 5.07D-07
 IDIUse=1 WtCom= 1.00D+00 WtEn= 0.00D+00
 Coeff-Com: -0.113D-03 0.881D-04-0.124D-03 0.176D-03 0.934D-04-0.706D-04
 Coeff-Com:  0.744D-03 0.564D-02-0.282D-01 0.317D-01 0.574D-01-0.530D-01
 Coeff-Com: -0.231D+00 0.165D+00 0.105D+01
 Coeff:     -0.113D-03 0.881D-04-0.124D-03 0.176D-03 0.934D-04-0.706D-04
 Coeff:      0.744D-03 0.564D-02-0.282D-01 0.317D-01 0.574D-01-0.530D-01
 Coeff:     -0.231D+00 0.165D+00 0.105D+01
 Gap=     0.059 Goal=   None    Shift=    0.000
 Gap=     0.045 Goal=   None    Shift=    0.000
 RMSDP=2.97D-05 MaxDP=3.53D-03 DE=-7.17D-07 OVMax= 7.28D-04

 Cycle  16  Pass 1  IDiag  1:
 RMSU=  2.67D-06    CP:  6.57D-01  1.99D+00 -5.73D-01  4.56D-01  4.01D-01
                    CP:  8.03D-01  1.03D+00  1.05D+00  1.78D+00  2.03D+00
                    CP:  2.34D+00  2.33D+00  1.92D+00  1.32D+00  1.64D+00
 E= -1136.06676646572     Delta-E=       -0.000000146543 Rises=F Damp=F
 DIIS: error= 3.73D-06 at cycle  16 NSaved=  16.
 NSaved=16 IEnMin=16 EnMin= -1136.06676646572     IErMin=16 ErrMin= 3.73D-06
 ErrMax= 3.73D-06  0.00D+00 EMaxC= 1.00D-01 BMatC= 3.54D-09 BMatP= 7.21D-08
 IDIUse=1 WtCom= 1.00D+00 WtEn= 0.00D+00
 Coeff-Com:  0.135D-05-0.184D-07-0.679D-04 0.716D-04-0.197D-04 0.444D-04
 Coeff-Com: -0.806D-03-0.989D-04-0.105D-01 0.123D-01 0.256D-01-0.337D-02
 Coeff-Com: -0.901D-01-0.143D-01 0.199D+00 0.882D+00
 Coeff:      0.135D-05-0.184D-07-0.679D-04 0.716D-04-0.197D-04 0.444D-04
 Coeff:     -0.806D-03-0.989D-04-0.105D-01 0.123D-01 0.256D-01-0.337D-02
 Coeff:     -0.901D-01-0.143D-01 0.199D+00 0.882D+00
 Gap=     0.059 Goal=   None    Shift=    0.000
 Gap=     0.045 Goal=   None    Shift=    0.000
 RMSDP=1.16D-05 MaxDP=1.43D-03 DE=-1.47D-07 OVMax= 1.06D-04

 Cycle  17  Pass 1  IDiag  1:
 RMSU=  9.68D-07    CP:  6.57D-01  1.99D+00 -5.72D-01  4.56D-01  4.01D-01
                    CP:  8.04D-01  1.03D+00  1.06D+00  1.77D+00  2.03D+00
                    CP:  2.34D+00  2.33D+00  1.93D+00  1.41D+00  1.91D+00
                    CP:  1.23D+00
 E= -1136.06676647036     Delta-E=       -0.000000004642 Rises=F Damp=F
 DIIS: error= 1.84D-06 at cycle  17 NSaved=  17.
 NSaved=17 IEnMin=17 EnMin= -1136.06676647036     IErMin=17 ErrMin= 1.84D-06
 ErrMax= 1.84D-06  0.00D+00 EMaxC= 1.00D-01 BMatC= 4.48D-10 BMatP= 3.54D-09
 IDIUse=1 WtCom= 1.00D+00 WtEn= 0.00D+00
 Coeff-Com:  0.924D-05-0.100D-04-0.152D-06 0.530D-05-0.356D-05-0.189D-05
 Coeff-Com: -0.656D-04-0.528D-03 0.255D-02-0.305D-02-0.389D-02 0.770D-02
 Coeff-Com:  0.205D-01-0.242D-01-0.880D-01 0.644D-01 0.102D+01
 Coeff:      0.924D-05-0.100D-04-0.152D-06 0.530D-05-0.356D-05-0.189D-05
 Coeff:     -0.656D-04-0.528D-03 0.255D-02-0.305D-02-0.389D-02 0.770D-02
 Coeff:      0.205D-01-0.242D-01-0.880D-01 0.644D-01 0.102D+01
 Gap=     0.059 Goal=   None    Shift=    0.000
 Gap=     0.045 Goal=   None    Shift=    0.000
 RMSDP=3.35D-06 MaxDP=3.91D-04 DE=-4.64D-09 OVMax= 6.65D-05

 Cycle  18  Pass 1  IDiag  1:
 RMSU=  1.86D-07    CP:  6.57D-01  1.99D+00 -5.72D-01  4.56D-01  4.00D-01
                    CP:  8.04D-01  1.03D+00  1.06D+00  1.77D+00  2.02D+00
                    CP:  2.33D+00  2.32D+00  1.93D+00  1.43D+00  2.01D+00
                    CP:  1.38D+00  1.26D+00
 E= -1136.06676647151     Delta-E=       -0.000000001157 Rises=F Damp=F
 DIIS: error= 5.62D-07 at cycle  18 NSaved=  18.
 NSaved=18 IEnMin=18 EnMin= -1136.06676647151     IErMin=18 ErrMin= 5.62D-07
 ErrMax= 5.62D-07  0.00D+00 EMaxC= 1.00D-01 BMatC= 5.93D-11 BMatP= 4.48D-10
 IDIUse=1 WtCom= 1.00D+00 WtEn= 0.00D+00
 Coeff-Com:  0.215D-06 0.167D-06 0.894D-05-0.152D-06-0.385D-05-0.305D-07
 Coeff-Com:  0.161D-04-0.169D-03 0.178D-02-0.134D-02-0.379D-02 0.168D-02
 Coeff-Com:  0.141D-01-0.615D-02-0.476D-01-0.254D-01 0.347D+00 0.720D+00
 Coeff:      0.215D-06 0.167D-06 0.894D-05-0.152D-06-0.385D-05-0.305D-07
 Coeff:      0.161D-04-0.169D-03 0.178D-02-0.134D-02-0.379D-02 0.168D-02
 Coeff:      0.141D-01-0.615D-02-0.476D-01-0.254D-01 0.347D+00 0.720D+00
 Gap=     0.059 Goal=   None    Shift=    0.000
 Gap=     0.045 Goal=   None    Shift=    0.000
 RMSDP=9.79D-07 MaxDP=1.21D-04 DE=-1.16D-09 OVMax= 2.07D-05

 Cycle  19  Pass 1  IDiag  1:
 RMSU=  6.22D-08    CP:  6.57D-01  1.99D+00 -5.72D-01  4.56D-01  4.00D-01
                    CP:  8.04D-01  1.03D+00  1.06D+00  1.77D+00  2.02D+00
                    CP:  2.33D+00  2.32D+00  1.93D+00  1.43D+00  2.03D+00
                    CP:  1.40D+00  1.35D+00  1.32D+00
 E= -1136.06676647164     Delta-E=       -0.000000000127 Rises=F Damp=F
 DIIS: error= 3.49D-07 at cycle  19 NSaved=  19.
 NSaved=19 IEnMin=19 EnMin= -1136.06676647164     IErMin=19 ErrMin= 3.49D-07
 ErrMax= 3.49D-07  0.00D+00 EMaxC= 1.00D-01 BMatC= 8.64D-12 BMatP= 5.93D-11
 IDIUse=1 WtCom= 1.00D+00 WtEn= 0.00D+00
 Coeff-Com:  0.438D-06-0.594D-06 0.503D-06 0.135D-06-0.287D-05 0.935D-07
 Coeff-Com: -0.192D-04 0.423D-04-0.211D-03 0.175D-03 0.442D-03-0.187D-03
 Coeff-Com: -0.238D-02 0.507D-03 0.868D-02-0.160D-02-0.797D-01 0.661D-01
 Coeff-Com:  0.101D+01
 Coeff:      0.438D-06-0.594D-06 0.503D-06 0.135D-06-0.287D-05 0.935D-07
 Coeff:     -0.192D-04 0.423D-04-0.211D-03 0.175D-03 0.442D-03-0.187D-03
 Coeff:     -0.238D-02 0.507D-03 0.868D-02-0.160D-02-0.797D-01 0.661D-01
 Coeff:      0.101D+01
 Gap=     0.059 Goal=   None    Shift=    0.000
 Gap=     0.045 Goal=   None    Shift=    0.000
 RMSDP=2.13D-07 MaxDP=1.86D-05 DE=-1.27D-10 OVMax= 1.84D-05

 Cycle  20  Pass 1  IDiag  1:
 RMSU=  3.88D-08    CP:  6.57D-01  1.99D+00 -5.72D-01  4.56D-01  4.00D-01
                    CP:  8.04D-01  1.03D+00  1.06D+00  1.77D+00  2.02D+00
                    CP:  2.33D+00  2.33D+00  1.93D+00  1.43D+00  2.03D+00
                    CP:  1.41D+00  1.37D+00  1.62D+00  2.00D+00
 E= -1136.06676647171     Delta-E=       -0.000000000065 Rises=F Damp=F
 DIIS: error= 2.49D-07 at cycle  20 NSaved=  20.
 NSaved=20 IEnMin=20 EnMin= -1136.06676647171     IErMin=20 ErrMin= 2.49D-07
 ErrMax= 2.49D-07  0.00D+00 EMaxC= 1.00D-01 BMatC= 3.69D-12 BMatP= 8.64D-12
 IDIUse=1 WtCom= 1.00D+00 WtEn= 0.00D+00
 Coeff-Com:  0.500D-07 0.217D-07-0.254D-05-0.666D-07 0.221D-05-0.624D-06
 Coeff-Com:  0.172D-04-0.494D-05-0.273D-03 0.299D-03 0.509D-03-0.332D-03
 Coeff-Com: -0.129D-02 0.783D-03 0.516D-02 0.842D-02-0.368D-01-0.283D+00
 Coeff-Com: -0.681D+00 0.199D+01
 Coeff:      0.500D-07 0.217D-07-0.254D-05-0.666D-07 0.221D-05-0.624D-06
 Coeff:      0.172D-04-0.494D-05-0.273D-03 0.299D-03 0.509D-03-0.332D-03
 Coeff:     -0.129D-02 0.783D-03 0.516D-02 0.842D-02-0.368D-01-0.283D+00
 Coeff:     -0.681D+00 0.199D+01
 Gap=     0.059 Goal=   None    Shift=    0.000
 Gap=     0.045 Goal=   None    Shift=    0.000
 RMSDP=1.84D-07 MaxDP=1.81D-05 DE=-6.55D-11 OVMax= 3.09D-05

 Cycle  21  Pass 1  IDiag  1:
 Restarting incremental Fock formation.
 E= -1136.06676647179     Delta-E=       -0.000000000082 Rises=F Damp=F
 DIIS: error= 1.47D-07 at cycle  21 NSaved=  20.
 NSaved=20 IEnMin=20 EnMin= -1136.06676647179     IErMin=20 ErrMin= 1.47D-07
 ErrMax= 1.47D-07  0.00D+00 EMaxC= 1.00D-01 BMatC= 1.18D-12 BMatP= 3.69D-12
 IDIUse=1 WtCom= 1.00D+00 WtEn= 0.00D+00
 Coeff-Com: -0.727D-06 0.723D-06-0.147D-06 0.144D-05 0.897D-07 0.731D-05
 Coeff-Com:  0.807D-05 0.416D-05-0.956D-04-0.252D-04 0.589D-04 0.795D-04
 Coeff-Com:  0.497D-03-0.135D-02-0.174D-02 0.158D-01 0.417D-01-0.212D+00
 Coeff-Com: -0.486D+00 0.164D+01
 Coeff:     -0.727D-06 0.723D-06-0.147D-06 0.144D-05 0.897D-07 0.731D-05
 Coeff:      0.807D-05 0.416D-05-0.956D-04-0.252D-04 0.589D-04 0.795D-04
 Coeff:      0.497D-03-0.135D-02-0.174D-02 0.158D-01 0.417D-01-0.212D+00
 Coeff:     -0.486D+00 0.164D+01
 Gap=     0.059 Goal=   None    Shift=    0.000
 Gap=     0.045 Goal=   None    Shift=    0.000
 RMSDP=1.51D-07 MaxDP=1.42D-05 DE=-8.23D-11 OVMax= 2.50D-05

 Cycle  22  Pass 1  IDiag  1:
 RMSU=  1.47D-07    CP:  1.00D+00
 E= -1136.06676647183     Delta-E=       -0.000000000036 Rises=F Damp=F
 DIIS: error= 6.69D-08 at cycle  22 NSaved=  20.
 NSaved=20 IEnMin=20 EnMin= -1136.06676647183     IErMin=20 ErrMin= 6.69D-08
 ErrMax= 6.69D-08  0.00D+00 EMaxC= 1.00D-01 BMatC= 2.84D-13 BMatP= 1.18D-12
 IDIUse=1 WtCom= 1.00D+00 WtEn= 0.00D+00
 Coeff-Com: -0.300D-06 0.333D-06 0.343D-06 0.515D-06-0.312D-05 0.545D-05
 Coeff-Com:  0.556D-04-0.945D-04-0.997D-04 0.182D-05 0.343D-03-0.580D-04
 Coeff-Com: -0.994D-03-0.251D-02 0.124D-01 0.555D-01 0.881D-01-0.528D+00
 Coeff-Com:  0.354D+00 0.102D+01
 Coeff:     -0.300D-06 0.333D-06 0.343D-06 0.515D-06-0.312D-05 0.545D-05
 Coeff:      0.556D-04-0.945D-04-0.997D-04 0.182D-05 0.343D-03-0.580D-04
 Coeff:     -0.994D-03-0.251D-02 0.124D-01 0.555D-01 0.881D-01-0.528D+00
 Coeff:      0.354D+00 0.102D+01
 Gap=     0.059 Goal=   None    Shift=    0.000
 Gap=     0.045 Goal=   None    Shift=    0.000
 RMSDP=5.20D-08 MaxDP=5.81D-06 DE=-3.64D-11 OVMax= 9.84D-06

 Cycle  23  Pass 1  IDiag  1:
 RMSU=  1.87D-08    CP:  1.00D+00  1.33D+00
 E= -1136.06676647183     Delta-E=       -0.000000000001 Rises=F Damp=F
 DIIS: error= 2.51D-08 at cycle  23 NSaved=  20.
 NSaved=20 IEnMin=20 EnMin= -1136.06676647183     IErMin=20 ErrMin= 2.51D-08
 ErrMax= 2.51D-08  0.00D+00 EMaxC= 1.00D-01 BMatC= 7.88D-14 BMatP= 2.84D-13
 IDIUse=1 WtCom= 1.00D+00 WtEn= 0.00D+00
 Coeff-Com:  0.813D-07-0.538D-07 0.161D-06-0.289D-05-0.318D-06 0.622D-05
 Coeff-Com:  0.130D-04 0.168D-04-0.164D-04-0.246D-04 0.838D-04 0.441D-04
 Coeff-Com:  0.247D-03-0.135D-02-0.153D-01 0.520D-01 0.113D+00-0.432D+00
 Coeff-Com:  0.178D+00 0.111D+01
 Coeff:      0.813D-07-0.538D-07 0.161D-06-0.289D-05-0.318D-06 0.622D-05
 Coeff:      0.130D-04 0.168D-04-0.164D-04-0.246D-04 0.838D-04 0.441D-04
 Coeff:      0.247D-03-0.135D-02-0.153D-01 0.520D-01 0.113D+00-0.432D+00
 Coeff:      0.178D+00 0.111D+01
 Gap=     0.059 Goal=   None    Shift=    0.000
 Gap=     0.045 Goal=   None    Shift=    0.000
 RMSDP=2.56D-08 MaxDP=1.91D-06 DE=-9.09D-13 OVMax= 3.30D-06

 Cycle  24  Pass 1  IDiag  1:
 RMSU=  2.40D-08    CP:  1.00D+00  1.38D+00  1.11D+00
 E= -1136.06676647182     Delta-E=        0.000000000003 Rises=F Damp=F
 DIIS: error= 4.71D-09 at cycle  24 NSaved=  20.
 NSaved=20 IEnMin=19 EnMin= -1136.06676647183     IErMin=20 ErrMin= 4.71D-09
 ErrMax= 4.71D-09  0.00D+00 EMaxC= 1.00D-01 BMatC= 3.68D-15 BMatP= 7.88D-14
 IDIUse=1 WtCom= 1.00D+00 WtEn= 0.00D+00
 Large coefficients: NSaved= 20 BigCof=    0.00 CofMax=   10.00 Det=-6.27D-15
 Inversion failed.  Reducing to 19 matrices.
 Large coefficients: NSaved= 19 BigCof=    0.00 CofMax=   10.00 Det=-6.45D-15
 Inversion failed.  Reducing to 18 matrices.
 Large coefficients: NSaved= 18 BigCof=    0.00 CofMax=   10.00 Det=-7.51D-15
 Inversion failed.  Reducing to 17 matrices.
 Large coefficients: NSaved= 17 BigCof=    0.00 CofMax=   10.00 Det=-8.36D-15
 Inversion failed.  Reducing to 16 matrices.
 Large coefficients: NSaved= 16 BigCof=    0.00 CofMax=   10.00 Det=-8.80D-15
 Inversion failed.  Reducing to 15 matrices.
 Coeff-Com:  0.552D-05 0.451D-05-0.113D-04-0.227D-04 0.208D-04 0.528D-04
 Coeff-Com: -0.924D-04-0.131D-02 0.975D-03 0.198D-02 0.120D-01-0.179D-01
 Coeff-Com: -0.242D-01-0.120D+00 0.115D+01
 Coeff:      0.552D-05 0.451D-05-0.113D-04-0.227D-04 0.208D-04 0.528D-04
 Coeff:     -0.924D-04-0.131D-02 0.975D-03 0.198D-02 0.120D-01-0.179D-01
 Coeff:     -0.242D-01-0.120D+00 0.115D+01
 Gap=     0.059 Goal=   None    Shift=    0.000
 Gap=     0.045 Goal=   None    Shift=    0.000
 RMSDP=1.03D-08 MaxDP=1.19D-06 DE= 2.96D-12 OVMax= 4.35D-07

 Cycle  25  Pass 1  IDiag  1:
 RMSU=  3.62D-09    CP:  1.00D+00  1.36D+00  1.24D+00  1.35D+00
 E= -1136.06676647183     Delta-E=       -0.000000000003 Rises=F Damp=F
 DIIS: error= 1.67D-09 at cycle  25 NSaved=  16.
 NSaved=16 IEnMin=14 EnMin= -1136.06676647183     IErMin=16 ErrMin= 1.67D-09
 ErrMax= 1.67D-09  0.00D+00 EMaxC= 1.00D-01 BMatC= 5.94D-16 BMatP= 3.68D-15
 IDIUse=1 WtCom= 1.00D+00 WtEn= 0.00D+00
 Large coefficients: NSaved= 16 BigCof=    0.00 CofMax=   10.00 Det=-1.46D-15
 Inversion failed.  Reducing to 15 matrices.
 Coeff-Com: -0.994D-06-0.283D-05 0.533D-05-0.703D-05-0.453D-04 0.150D-04
 Coeff-Com:  0.126D-03 0.197D-02-0.371D-02-0.106D-01 0.362D-01-0.108D-01
 Coeff-Com: -0.150D+00 0.189D+00 0.948D+00
 Coeff:     -0.994D-06-0.283D-05 0.533D-05-0.703D-05-0.453D-04 0.150D-04
 Coeff:      0.126D-03 0.197D-02-0.371D-02-0.106D-01 0.362D-01-0.108D-01
 Coeff:     -0.150D+00 0.189D+00 0.948D+00
 Gap=     0.059 Goal=   None    Shift=    0.000
 Gap=     0.045 Goal=   None    Shift=    0.000
 RMSDP=3.69D-09 MaxDP=4.26D-07 DE=-2.50D-12 OVMax= 9.71D-08

 SCF Done:  E(UB3LYP) =  -1136.06676647     A.U. after   25 cycles
            NFock= 25  Conv=0.37D-08     -V/T= 2.0029
 <Sx>= 0.0000 <Sy>= 0.0000 <Sz>= 0.5000 <S**2>= 1.7704 S= 0.9214
 <L.S>= 0.000000000000E+00
 KE= 1.132826091075D+03 PE=-2.941691091493D+03 EE= 5.662386532441D+02
 Annihilation of the first spin contaminant:
 S**2 before annihilation     1.7704,   after     0.8178
 Leave Link  502 at Tue Nov 21 11:50:08 2023, MaxMem=   104857600 cpu:             640.6 elap:             533.6
 (Enter /home/sekinelabo/g16/l601.exe)
 Copying SCF densities to generalized density rwf, IOpCl= 1 IROHF=0.

 **********************************************************************

            Population analysis using the SCF Density.

 **********************************************************************

 Orbital symmetries:
 Alpha Orbitals:
       Occupied  (A) (A) (A) (A) (A) (A) (A) (A) (A) (A) (A) (A)
                 (A) (A) (A) (A) (A) (A) (A) (A) (A) (A) (A) (A)
                 (A) (A) (A) (A) (A) (A) (A) (A) (A) (A) (A) (A)
                 (A) (A) (A)
       Virtual   (A) (A) (A) (A) (A) (A) (A) (A) (A) (A) (A) (A)
                 (A) (A) (A) (A) (A) (A) (A) (A) (A) (A) (A) (A)
                 (A) (A) (A) (A) (A) (A) (A) (A) (A) (A) (A) (A)
                 (A) (A) (A) (A) (A) (A) (A) (A) (A) (A) (A) (A)
                 (A) (A) (A) (A) (A) (A) (A) (A) (A) (A) (A) (A)
                 (A) (A) (A) (A) (A) (A) (A) (A) (A) (A) (A) (A)
                 (A) (A) (A) (A) (A) (A) (A) (A) (A) (A) (A) (A)
                 (A) (A) (A) (A) (A) (A) (A) (A) (A) (A) (A) (A)
                 (A) (A) (A) (A) (A) (A) (A) (A) (A) (A) (A) (A)
                 (A) (A) (A) (A) (A) (A) (A) (A) (A) (A) (A) (A)
                 (A) (A) (A) (A) (A) (A) (A) (A) (A) (A) (A) (A)
                 (A) (A) (A) (A) (A) (A) (A) (A) (A) (A) (A) (A)
                 (A) (A) (A) (A) (A) (A) (A) (A) (A) (A) (A) (A)
                 (A) (A) (A) (A) (A) (A) (A) (A) (A) (A) (A) (A)
                 (A) (A) (A)
 Beta  Orbitals:
       Occupied  (A) (A) (A) (A) (A) (A) (A) (A) (A) (A) (A) (A)
                 (A) (A) (A) (A) (A) (A) (A) (A) (A) (A) (A) (A)
                 (A) (A) (A) (A) (A) (A) (A) (A) (A) (A) (A) (A)
                 (A) (A)
       Virtual   (A) (A) (A) (A) (A) (A) (A) (A) (A) (A) (A) (A)
                 (A) (A) (A) (A) (A) (A) (A) (A) (A) (A) (A) (A)
                 (A) (A) (A) (A) (A) (A) (A) (A) (A) (A) (A) (A)
                 (A) (A) (A) (A) (A) (A) (A) (A) (A) (A) (A) (A)
                 (A) (A) (A) (A) (A) (A) (A) (A) (A) (A) (A) (A)
                 (A) (A) (A) (A) (A) (A) (A) (A) (A) (A) (A) (A)
                 (A) (A) (A) (A) (A) (A) (A) (A) (A) (A) (A) (A)
                 (A) (A) (A) (A) (A) (A) (A) (A) (A) (A) (A) (A)
                 (A) (A) (A) (A) (A) (A) (A) (A) (A) (A) (A) (A)
                 (A) (A) (A) (A) (A) (A) (A) (A) (A) (A) (A) (A)
                 (A) (A) (A) (A) (A) (A) (A) (A) (A) (A) (A) (A)
                 (A) (A) (A) (A) (A) (A) (A) (A) (A) (A) (A) (A)
                 (A) (A) (A) (A) (A) (A) (A) (A) (A) (A) (A) (A)
                 (A) (A) (A) (A) (A) (A) (A) (A) (A) (A) (A) (A)
                 (A) (A) (A) (A)
 The electronic state is 2-A.
 Alpha  occ. eigenvalues --  -38.45770 -38.45595 -38.45113 -38.44940 -38.44669
 Alpha  occ. eigenvalues --  -38.44668 -38.43533  -2.21555  -2.21219  -2.20930
 Alpha  occ. eigenvalues --   -2.20770  -2.20402  -2.20392  -2.19371  -1.15168
 Alpha  occ. eigenvalues --   -1.15168  -1.15168  -1.14944  -1.14944  -1.14944
 Alpha  occ. eigenvalues --   -1.14566  -1.14552  -1.14552  -1.14429  -1.14388
 Alpha  occ. eigenvalues --   -1.14388  -1.14075  -1.14075  -1.14068  -1.14068
 Alpha  occ. eigenvalues --   -1.14048  -1.13991  -1.13076  -1.13035  -1.13034
 Alpha  occ. eigenvalues --   -0.14855  -0.12798  -0.12620  -0.12174
 Alpha virt. eigenvalues --   -0.06228  -0.06201  -0.04749  -0.03090  -0.03086
 Alpha virt. eigenvalues --   -0.02216  -0.02215  -0.02097  -0.02097  -0.02097
 Alpha virt. eigenvalues --   -0.01418  -0.01351  -0.01296  -0.01209  -0.00092
 Alpha virt. eigenvalues --   -0.00092  -0.00092   0.00111   0.00124   0.00368
 Alpha virt. eigenvalues --    0.00369   0.00534   0.00654   0.00843   0.00957
 Alpha virt. eigenvalues --    0.01017   0.01025   0.01044   0.01317   0.01319
 Alpha virt. eigenvalues --    0.01335   0.01335   0.01345   0.01693   0.01719
 Alpha virt. eigenvalues --    0.01874   0.01921   0.01955   0.01960   0.02234
 Alpha virt. eigenvalues --    0.02240   0.02240   0.02538   0.02590   0.02591
 Alpha virt. eigenvalues --    0.03479   0.03621   0.03685   0.03903   0.03951
 Alpha virt. eigenvalues --    0.04420   0.05412   0.07037   0.07149   0.07301
 Alpha virt. eigenvalues --    0.07430   0.07464   0.07473   0.07477   0.07552
 Alpha virt. eigenvalues --    0.07651   0.07653   0.07918   0.08014   0.08034
 Alpha virt. eigenvalues --    0.08717   0.08818   0.08818   0.08828   0.09317
 Alpha virt. eigenvalues --    0.09318   0.09451   0.10104   0.10359   0.10559
 Alpha virt. eigenvalues --    0.10772   0.13806   0.14504   0.14560   0.18013
 Alpha virt. eigenvalues --    0.27248   0.27484   0.30423   0.30423   0.31387
 Alpha virt. eigenvalues --    0.31964   0.31966   0.32173   0.33228   0.33228
 Alpha virt. eigenvalues --    0.33228   0.33228   0.33228   0.34108   0.34109
 Alpha virt. eigenvalues --    0.34179   0.34179   0.35316   0.35316   0.35316
 Alpha virt. eigenvalues --    0.35316   0.35316   0.36616   0.36616   0.36630
 Alpha virt. eigenvalues --    0.37295   0.37349   0.39115   0.39128   0.41942
 Alpha virt. eigenvalues --    0.41942   0.41942   0.42052   0.42627   0.42664
 Alpha virt. eigenvalues --    0.42689   0.42689   0.43278   0.43326   0.43426
 Alpha virt. eigenvalues --    0.43426   0.43430   0.43713   0.43714   0.44576
 Alpha virt. eigenvalues --    0.44576   0.45077   0.45159   0.46355   0.46486
 Alpha virt. eigenvalues --    0.47171   0.52234   0.52284   0.57398   0.62251
 Alpha virt. eigenvalues --    0.74989   1.98669   1.99527   1.99643   2.00821
 Alpha virt. eigenvalues --    2.10331   2.10868   2.17733   4.39752   4.42812
 Alpha virt. eigenvalues --    4.42812   4.42813   4.43117   4.43124   4.43124
 Alpha virt. eigenvalues --    4.43225   4.43324   4.43333   4.43821   4.43915
 Alpha virt. eigenvalues --    4.44086   4.44086   4.44486   4.44486   4.46605
 Alpha virt. eigenvalues --    4.46678   4.49026   4.54503   4.64986  96.17686
 Alpha virt. eigenvalues --   96.17945  96.18228  96.19858  96.31083  96.32589
 Alpha virt. eigenvalues --   96.40546
  Beta  occ. eigenvalues --  -38.45781 -38.45585 -38.44997 -38.44835 -38.44669
  Beta  occ. eigenvalues --  -38.44668 -38.43531  -2.21565  -2.21209  -2.20715
  Beta  occ. eigenvalues --   -2.20575  -2.20402  -2.20392  -2.19381  -1.15178
  Beta  occ. eigenvalues --   -1.15178  -1.15178  -1.14933  -1.14933  -1.14933
  Beta  occ. eigenvalues --   -1.14423  -1.14406  -1.14406  -1.14300  -1.14256
  Beta  occ. eigenvalues --   -1.14255  -1.14075  -1.14075  -1.14068  -1.14068
  Beta  occ. eigenvalues --   -1.14048  -1.13991  -1.13053  -1.13053  -1.12992
  Beta  occ. eigenvalues --   -0.13614  -0.12808  -0.12620
  Beta virt. eigenvalues --   -0.08133  -0.06218  -0.06201  -0.03892  -0.02750
  Beta virt. eigenvalues --   -0.02741  -0.02216  -0.02215  -0.02108  -0.02107
  Beta virt. eigenvalues --   -0.02107  -0.01351  -0.00741  -0.00615  -0.00579
  Beta virt. eigenvalues --   -0.00083  -0.00082  -0.00080   0.00110   0.00233
  Beta virt. eigenvalues --    0.00368   0.00369   0.00534   0.00654   0.00849
  Beta virt. eigenvalues --    0.00951   0.01001   0.01013   0.01306   0.01313
  Beta virt. eigenvalues --    0.01321   0.01324   0.01327   0.01329   0.01712
  Beta virt. eigenvalues --    0.01811   0.02000   0.02007   0.02018   0.02052
  Beta virt. eigenvalues --    0.02250   0.02250   0.02286   0.02525   0.02589
  Beta virt. eigenvalues --    0.02591   0.03448   0.03655   0.03711   0.03950
  Beta virt. eigenvalues --    0.03977   0.04587   0.05633   0.07026   0.07383
  Beta virt. eigenvalues --    0.07462   0.07462   0.07484   0.07593   0.07652
  Beta virt. eigenvalues --    0.07652   0.07697   0.07886   0.08010   0.08368
  Beta virt. eigenvalues --    0.08457   0.08718   0.08828   0.08828   0.08852
  Beta virt. eigenvalues --    0.09317   0.09318   0.09462   0.10103   0.10534
  Beta virt. eigenvalues --    0.10646   0.11204   0.13807   0.14717   0.14919
  Beta virt. eigenvalues --    0.18516   0.27997   0.28236   0.30423   0.30423
  Beta virt. eigenvalues --    0.31387   0.32399   0.32400   0.32765   0.33218
  Beta virt. eigenvalues --    0.33218   0.33218   0.33218   0.33218   0.34179
  Beta virt. eigenvalues --    0.34179   0.35255   0.35256   0.35326   0.35326
  Beta virt. eigenvalues --    0.35326   0.35326   0.35326   0.36616   0.36616
  Beta virt. eigenvalues --    0.37081   0.38095   0.38125   0.39415   0.39440
  Beta virt. eigenvalues --    0.41932   0.41932   0.41935   0.42052   0.42689
  Beta virt. eigenvalues --    0.42689   0.43064   0.43102   0.43436   0.43436
  Beta virt. eigenvalues --    0.43443   0.43623   0.43678   0.43713   0.43715
  Beta virt. eigenvalues --    0.44576   0.44576   0.44875   0.44922   0.46782
  Beta virt. eigenvalues --    0.46959   0.47171   0.52495   0.52545   0.57398
  Beta virt. eigenvalues --    0.62636   0.75137   1.98659   1.99538   1.99643
  Beta virt. eigenvalues --    2.01161   2.10331   2.11349   2.17807   4.39904
  Beta virt. eigenvalues --    4.42802   4.42802   4.42802   4.43134   4.43134
  Beta virt. eigenvalues --    4.43135   4.43218   4.43447   4.43458   4.43992
  Beta virt. eigenvalues --    4.44081   4.44086   4.44090   4.44486   4.44486
  Beta virt. eigenvalues --    4.46601   4.46668   4.49026   4.54672   4.65084
  Beta virt. eigenvalues --   96.17676  96.17955  96.18228  96.19969  96.31083
  Beta virt. eigenvalues --   96.32749  96.40582
          Condensed to atoms (all electrons):
               1          2          3          4          5          6
     1  Na  11.000000  -0.000000  -0.000000  -0.000000   0.000000  -0.000000
     2  Na  -0.000000  10.692855   0.307160   0.000000   0.000000  -0.000000
     3  Na  -0.000000   0.307160  10.692826   0.000000  -0.000000  -0.000000
     4  Na  -0.000000   0.000000   0.000000  10.955813  -0.049571  -0.420279
     5  Na   0.000000   0.000000  -0.000000  -0.049571  11.734576   0.230502
     6  Na  -0.000000  -0.000000  -0.000000  -0.420279   0.230502  10.788307
     7  Na  -0.000000  -0.000000  -0.000000  -0.000000   0.000000   0.000000
               7
     1  Na  -0.000000
     2  Na  -0.000000
     3  Na  -0.000000
     4  Na  -0.000000
     5  Na   0.000000
     6  Na   0.000000
     7  Na  11.000000
          Atomic-Atomic Spin Densities.
               1          2          3          4          5          6
     1  Na  -1.000000   0.000000   0.000000   0.000000  -0.000000  -0.000000
     2  Na   0.000000  -0.000023   0.000003   0.000000   0.000000  -0.000000
     3  Na   0.000000   0.000003   0.000016   0.000000   0.000000  -0.000000
     4  Na   0.000000   0.000000   0.000000   0.580171  -0.049147  -0.256101
     5  Na  -0.000000   0.000000   0.000000  -0.049147   0.362479   0.101331
     6  Na  -0.000000  -0.000000  -0.000000  -0.256101   0.101331   0.465182
     7  Na  -0.000000  -0.000000   0.000000  -0.000000   0.000000   0.000000
               7
     1  Na  -0.000000
     2  Na  -0.000000
     3  Na   0.000000
     4  Na  -0.000000
     5  Na   0.000000
     6  Na   0.000000
     7  Na   1.000000
 Mulliken charges and spin densities:
               1          2
     1  Na  -0.000000  -1.000000
     2  Na  -0.000015  -0.000019
     3  Na   0.000015   0.000019
     4  Na   0.514038   0.274923
     5  Na  -0.915507   0.414664
     6  Na   0.401470   0.310413
     7  Na  -0.000000   1.000000
 Sum of Mulliken charges =  -0.00000   1.00000
 Mulliken charges and spin densities with hydrogens summed into heavy atoms:
               1          2
     1  Na  -0.000000  -1.000000
     2  Na  -0.000015  -0.000019
     3  Na   0.000015   0.000019
     4  Na   0.514038   0.274923
     5  Na  -0.915507   0.414664
     6  Na   0.401470   0.310413
     7  Na  -0.000000   1.000000
 Electronic spatial extent (au):  <R**2>=          90792.1945
 Charge=             -0.0000 electrons
 Dipole moment (field-independent basis, Debye):
    X=              0.1085    Y=             -0.0353    Z=             -0.0308  Tot=              0.1182
 Quadrupole moment (field-independent basis, Debye-Ang):
   XX=            -77.7357   YY=            -72.1853   ZZ=            -59.8552
   XY=             -4.5217   XZ=              2.1136   YZ=             -2.2320
 Traceless Quadrupole moment (field-independent basis, Debye-Ang):
   XX=             -7.8103   YY=             -2.2599   ZZ=             10.0702
   XY=             -4.5217   XZ=              2.1136   YZ=             -2.2320
 Octapole moment (field-independent basis, Debye-Ang**2):
  XXX=             74.5554  YYY=             37.7644  ZZZ=           -162.9145  XYY=             -0.0982
  XXY=            -67.3841  XXZ=            102.7340  XZZ=           -172.4185  YZZ=             -3.9993
  YYZ=           -137.2994  XYZ=            -25.1805
 Hexadecapole moment (field-independent basis, Debye-Ang**3):
 XXXX=         -96966.4174 YYYY=         -32756.1274 ZZZZ=         -22026.9908 XXXY=          -1005.7080
 XXXZ=            139.0912 YYYX=           1095.4317 YYYZ=           -754.2466 ZZZX=           -116.5437
 ZZZY=          -1292.0821 XXYY=         -22402.5499 XXZZ=         -19386.5983 YYZZ=          -7554.4786
 XXYZ=            424.7168 YYXZ=           -328.5942 ZZXY=           1898.8014
 N-N= 1.065595807022D+02 E-N=-2.941691091500D+03  KE= 1.132826091075D+03
                          Isotropic Fermi Contact Couplings
        Atom                 a.u.       MegaHertz       Gauss      10(-4) cm-1
     1  Na(23)            -0.79296    -938.09927    -334.73715    -312.91623
     2  Na(23)            -0.00000      -0.00012      -0.00004      -0.00004
     3  Na(23)             0.00000       0.00013       0.00005       0.00004
     4  Na(23)             0.45681     540.42330     192.83647     180.26581
     5  Na(23)            -0.12259    -145.02599     -51.74888     -48.37546
     6  Na(23)             0.50191     593.77952     211.87530     198.06353
     7  Na(23)             0.79296     938.09915     334.73710     312.91619
 --------------------------------------------------------
       Center         ----  Spin Dipole Couplings  ----
                      3XX-RR        3YY-RR        3ZZ-RR
 --------------------------------------------------------
     1   Atom        0.000007     -0.000003     -0.000003
     2   Atom        0.000013     -0.000003     -0.000010
     3   Atom        0.000016     -0.000002     -0.000015
     4   Atom        0.002281      0.002165     -0.004446
     5   Atom       -0.047312     -0.045066      0.092378
     6   Atom        0.002116      0.002003     -0.004119
     7   Atom       -0.000012      0.000015     -0.000004
 --------------------------------------------------------
                        XY            XZ            YZ
 --------------------------------------------------------
     1   Atom       -0.000002      0.000003     -0.000000
     2   Atom        0.000010     -0.000019      0.000007
     3   Atom        0.000011     -0.000020      0.000011
     4   Atom        0.000164      0.000969     -0.001270
     5   Atom       -0.003672     -0.019626      0.026567
     6   Atom        0.000156      0.000905     -0.001182
     7   Atom        0.000000     -0.000001      0.000010
 --------------------------------------------------------


 ---------------------------------------------------------------------------------
              Anisotropic Spin Dipole Couplings in Principal Axis System
 ---------------------------------------------------------------------------------

       Atom             a.u.   MegaHertz   Gauss  10(-4) cm-1        Axes

              Baa    -0.0000    -0.001    -0.000    -0.000 -0.3057 -0.4522  0.8379
     1 Na(23) Bbb    -0.0000    -0.000    -0.000    -0.000  0.0564  0.8699  0.4901
              Bcc     0.0000     0.001     0.000     0.000  0.9505 -0.1971  0.2404
 
              Baa    -0.0000    -0.004    -0.001    -0.001  0.4840 -0.4438  0.7542
     2 Na(23) Bbb     0.0000     0.000     0.000     0.000  0.0196  0.8672  0.4976
              Bcc     0.0000     0.003     0.001     0.001  0.8748  0.2261 -0.4284
 
              Baa    -0.0000    -0.005    -0.002    -0.002  0.4336 -0.4432  0.7846
     3 Na(23) Bbb     0.0000     0.001     0.000     0.000  0.0141  0.8739  0.4858
              Bcc     0.0000     0.004     0.001     0.001  0.9010  0.1996 -0.3852
 
              Baa    -0.0048    -0.680    -0.243    -0.227 -0.1371  0.1803  0.9740
     4 Na(23) Bbb     0.0024     0.338     0.120     0.113  0.5112  0.8551 -0.0864
              Bcc     0.0024     0.343     0.122     0.114  0.8485 -0.4861  0.2094
 
              Baa    -0.0500    -7.065    -2.521    -2.357  0.6059  0.7929 -0.0644
     5 Na(23) Bbb    -0.0500    -7.062    -2.520    -2.356  0.7841 -0.5816  0.2166
              Bcc     0.1000    14.127     5.041     4.712 -0.1343  0.1818  0.9741
 
              Baa    -0.0045    -0.631    -0.225    -0.210 -0.1382  0.1812  0.9737
     6 Na(23) Bbb     0.0022     0.313     0.112     0.104  0.4153  0.9031 -0.1091
              Bcc     0.0022     0.318     0.113     0.106  0.8991 -0.3893  0.2001
 
              Baa    -0.0000    -0.002    -0.001    -0.001  0.9623 -0.1021  0.2520
     7 Na(23) Bbb    -0.0000    -0.001    -0.000    -0.000 -0.2719 -0.3776  0.8851
              Bcc     0.0000     0.003     0.001     0.001 -0.0048  0.9203  0.3912
 

 ---------------------------------------------------------------------------------

 No NMR shielding tensors so no spin-rotation constants.
 Leave Link  601 at Tue Nov 21 11:50:13 2023, MaxMem=   104857600 cpu:              14.8 elap:               5.7
 (Enter /home/sekinelabo/g16/l701.exe)
 ... and contract with generalized density number  0.
 Compute integral first derivatives.
 Leave Link  701 at Tue Nov 21 11:50:17 2023, MaxMem=   104857600 cpu:               7.9 elap:               3.0
 (Enter /home/sekinelabo/g16/l702.exe)
 L702 exits ... SP integral derivatives will be done elsewhere.
 Leave Link  702 at Tue Nov 21 11:50:17 2023, MaxMem=   104857600 cpu:               0.7 elap:               0.3
 (Enter /home/sekinelabo/g16/l703.exe)
 Integral derivatives from FoFJK, PRISM(SPDF).
 Compute integral first derivatives, UseDBF=F ICtDFT=           0.
 Calling FoFJK, ICntrl=      2127 FMM=F ISym2X=0 I1Cent= 0 IOpClX= 1 NMat=1 NMatS=1 NMatT=0.
 FoFJK:  IHMeth= 1 ICntrl=    2127 DoSepK=F KAlg= 0 I1Cent=           0 FoldK=F
 IRaf=         0 NMat=       1 IRICut=       1 DoRegI=T DoRafI=F ISym2E= 0 IDoP0=0 IntGTp=1.
 FoFCou: FMM=F IPFlag=           0 FMFlag=      100000 FMFlg1=         800
         NFxFlg=           0 DoJE=F BraDBF=F KetDBF=F FulRan=T
         wScrn=  0.000000 ICntrl=      2127 IOpCl=  1 I1Cent=           0 NGrid=           0
         NMat0=    1 NMatS0=      1 NMatT0=    0 NMatD0=    1 NMtDS0=    0 NMtDT0=    0
 Symmetry not used in FoFCou.
 Leave Link  703 at Tue Nov 21 11:50:25 2023, MaxMem=   104857600 cpu:              19.9 elap:               7.6
 (Enter /home/sekinelabo/g16/l716.exe)
 Dipole        = 4.27047365D-02-1.38862521D-02-1.21347953D-02
 ***** Axes restored to original set *****
 -------------------------------------------------------------------
 Center     Atomic                   Forces (Hartrees/Bohr)
 Number     Number              X              Y              Z
 -------------------------------------------------------------------
      1       11          -0.000000001   -0.000000044   -0.000000003
      2       11          -0.001819730    0.006195022   -0.000149046
      3       11           0.001819725   -0.006194993    0.000149061
      4       11           0.001965217    0.002014918   -0.001184539
      5       11          -0.001242534   -0.001382323    0.000681198
      6       11          -0.000722638   -0.000632592    0.000503331
      7       11          -0.000000039    0.000000012   -0.000000002
 -------------------------------------------------------------------
 Cartesian Forces:  Max     0.006195022 RMS     0.002158516
 Z-matrix is all fixed cartesians, so copy forces.
 Force constants in Cartesian coordinates: 
                1             2             3             4             5 
      1  0.100000D+01
      2  0.000000D+00  0.100000D+01
      3  0.000000D+00  0.000000D+00  0.100000D+01
      4  0.000000D+00  0.000000D+00  0.000000D+00  0.141748D-02
      5  0.000000D+00  0.000000D+00  0.000000D+00 -0.482546D-02  0.164271D-01
      6  0.000000D+00  0.000000D+00  0.000000D+00  0.116255D-03 -0.395761D-03
      7  0.000000D+00  0.000000D+00  0.000000D+00 -0.141748D-02  0.482546D-02
      8  0.000000D+00  0.000000D+00  0.000000D+00  0.482546D-02 -0.164271D-01
      9  0.000000D+00  0.000000D+00  0.000000D+00 -0.116255D-03  0.395761D-03
     10  0.000000D+00  0.000000D+00  0.000000D+00  0.000000D+00  0.000000D+00
     11  0.000000D+00  0.000000D+00  0.000000D+00  0.000000D+00  0.000000D+00
     12  0.000000D+00  0.000000D+00  0.000000D+00  0.000000D+00  0.000000D+00
     13  0.000000D+00  0.000000D+00  0.000000D+00  0.000000D+00  0.000000D+00
     14  0.000000D+00  0.000000D+00  0.000000D+00  0.000000D+00  0.000000D+00
     15  0.000000D+00  0.000000D+00  0.000000D+00  0.000000D+00  0.000000D+00
     16  0.000000D+00  0.000000D+00  0.000000D+00  0.000000D+00  0.000000D+00
     17  0.000000D+00  0.000000D+00  0.000000D+00  0.000000D+00  0.000000D+00
     18  0.000000D+00  0.000000D+00  0.000000D+00  0.000000D+00  0.000000D+00
     19  0.000000D+00  0.000000D+00  0.000000D+00  0.000000D+00  0.000000D+00
     20  0.000000D+00  0.000000D+00  0.000000D+00  0.000000D+00  0.000000D+00
     21  0.000000D+00  0.000000D+00  0.000000D+00  0.000000D+00  0.000000D+00
                6             7             8             9            10 
      6  0.953462D-05
      7 -0.116255D-03  0.141748D-02
      8  0.395761D-03 -0.482546D-02  0.164271D-01
      9 -0.953462D-05  0.116255D-03 -0.395761D-03  0.953462D-05
     10  0.000000D+00  0.000000D+00  0.000000D+00  0.000000D+00  0.144325D-01
     11  0.000000D+00  0.000000D+00  0.000000D+00  0.000000D+00  0.132292D-01
     12  0.000000D+00  0.000000D+00  0.000000D+00  0.000000D+00 -0.967457D-02
     13  0.000000D+00  0.000000D+00  0.000000D+00  0.000000D+00 -0.147195D-01
     14  0.000000D+00  0.000000D+00  0.000000D+00  0.000000D+00 -0.119183D-01
     15  0.000000D+00  0.000000D+00  0.000000D+00  0.000000D+00  0.108450D-01
     16  0.000000D+00  0.000000D+00  0.000000D+00  0.000000D+00  0.286928D-03
     17  0.000000D+00  0.000000D+00  0.000000D+00  0.000000D+00 -0.131094D-02
     18  0.000000D+00  0.000000D+00  0.000000D+00  0.000000D+00 -0.117043D-02
     19  0.000000D+00  0.000000D+00  0.000000D+00  0.000000D+00  0.000000D+00
     20  0.000000D+00  0.000000D+00  0.000000D+00  0.000000D+00  0.000000D+00
     21  0.000000D+00  0.000000D+00  0.000000D+00  0.000000D+00  0.000000D+00
               11            12            13            14            15 
     11  0.181361D-01
     12 -0.513321D-02  0.880603D-02
     13 -0.124760D-01  0.104984D-01  0.275243D-01
     14 -0.215776D-01  0.136909D-02  0.208775D-01  0.376995D-01
     15  0.206062D-02 -0.121667D-01 -0.211549D-01 -0.245936D-02  0.247026D-01
     16 -0.753237D-03 -0.823859D-03 -0.128049D-01 -0.895921D-02  0.103099D-01
     17  0.344145D-02  0.376412D-02 -0.840150D-02 -0.161220D-01  0.398744D-03
     18  0.307259D-02  0.336068D-02  0.106564D-01  0.109027D-02 -0.125359D-01
     19  0.000000D+00  0.000000D+00  0.000000D+00  0.000000D+00  0.000000D+00
     20  0.000000D+00  0.000000D+00  0.000000D+00  0.000000D+00  0.000000D+00
     21  0.000000D+00  0.000000D+00  0.000000D+00  0.000000D+00  0.000000D+00
               16            17            18            19            20 
     16  0.125179D-01
     17  0.971244D-02  0.126805D-01
     18 -0.948600D-02 -0.416286D-02  0.917522D-02
     19  0.000000D+00  0.000000D+00  0.000000D+00  0.100000D+01
     20  0.000000D+00  0.000000D+00  0.000000D+00  0.000000D+00  0.100000D+01
     21  0.000000D+00  0.000000D+00  0.000000D+00  0.000000D+00  0.000000D+00
               21 
     21  0.100000D+01
 Leave Link  716 at Tue Nov 21 11:50:25 2023, MaxMem=   104857600 cpu:               0.8 elap:               0.4
 (Enter /home/sekinelabo/g16/l103.exe)

 GradGradGradGradGradGradGradGradGradGradGradGradGradGradGradGradGradGrad
 Berny optimization.
 Search for a local minimum.
 Step number   1 out of a maximum of    2
 All quantities printed in internal units (Hartrees-Bohrs-Radians)
 Second derivative matrix not updated -- first step.
 ITU=  0
     Eigenvalues ---   -0.00000  -0.00000  -0.00000   0.00000   0.00000
     Eigenvalues ---    0.01882   0.02990   0.03571   0.04341   0.09237
     Eigenvalues ---    0.44381   0.50292   0.71429   0.80525   1.00000
 Eigenvalue     1 is  -1.11D-15 should be greater than     0.000000 Eigenvector:
                          Z2        X3        Z6        X2        X4
   1                    0.66837   0.39067  -0.34466  -0.25457  -0.25137
                          Y4        Z4        Y6        X5        Z5
   1                    0.21945  -0.20313  -0.15190   0.11060  -0.09443
 Eigenvalue     2 is  -5.55D-16 should be greater than     0.000000 Eigenvector:
                          Z2        Z5        X2        X5        X4
   1                    0.46445  -0.43174   0.39257  -0.38389   0.30988
                          X3        Z6        Y4        Y5        Z4
   1                   -0.25332  -0.18474  -0.17144   0.16986   0.13887
 Eigenvalue     3 is  -1.11D-16 should be greater than     0.000000 Eigenvector:
                          Z4        Z3        Y6        Z6        X2
   1                    0.71745  -0.34655  -0.28971  -0.24695  -0.22632
                          X3        X4        Z2        X5        Y4
   1                    0.21749   0.18911  -0.15822  -0.14603   0.14599
 Eigenvalue     4 is   0.00D+00 Eigenvector:
                          Z3        Z6        Z2        Z5        X3
   1                    0.81356  -0.32105  -0.30320  -0.22735   0.19512
                          Y6        Y3        X5        X2        X6
   1                   -0.11895   0.11230  -0.10207  -0.08473  -0.06542
 Eigenvalue     5 is   6.66D-16 Eigenvector:
                          Z6        X6        X5        Z5        X2
   1                    0.49912   0.48987  -0.40339  -0.32972  -0.30311
                          Y5        X3        Y6        Z4        Y2
   1                    0.22220   0.21920  -0.13520  -0.12702  -0.09608
 Angle between quadratic step and forces=  10.03 degrees.
 Linear search not attempted -- first point.
 B after Tr=     0.000000   -0.000000    0.000000
         Rot=    1.000000    0.000000    0.000000   -0.000000 Ang=   0.00 deg.
 Variable       Old X    -DE/DX   Delta X   Delta X   Delta X     New X
                                 (Linear)    (Quad)   (Total)
    X1       16.35052  -0.00000   0.00000   0.00000   0.00000  16.35052
    Y1       56.26697  -0.00000   0.00000  -0.00000  -0.00000  56.26697
    Z1       55.57968  -0.00000   0.00000  -0.00000  -0.00000  55.57968
    X2       20.34271  -0.00182   0.00000  -0.05097  -0.05097  20.29174
    Y2        4.24763   0.00620   0.00000   0.17341   0.17341   4.42104
    Z2       55.23915  -0.00015   0.00000  -0.00210  -0.00210  55.23705
    X3       18.46485   0.00182   0.00000   0.05100   0.05100  18.51586
    Y3       10.64035  -0.00619   0.00000  -0.17365  -0.17365  10.46670
    Z3       55.08514   0.00015   0.00000   0.00220   0.00220  55.08734
    X4       13.52613   0.00197   0.00000   0.04854   0.04854  13.57467
    Y4        9.90268   0.00201   0.00000   0.04603   0.04603   9.94870
    Z4        2.02297  -0.00118   0.00000  -0.02978  -0.02978   1.99319
    X5        9.81520  -0.00124   0.00000  -0.01274  -0.01274   9.80246
    Y5        6.06485  -0.00138   0.00000  -0.01079  -0.01079   6.05406
    Z5        4.23939   0.00068   0.00000   0.00422   0.00422   4.24361
    X6        5.76739  -0.00072   0.00000  -0.03583  -0.03583   5.73156
    Y6        2.61296  -0.00063   0.00000  -0.03500  -0.03500   2.57796
    Z6        7.11336   0.00050   0.00000   0.02546   0.02546   7.13882
    X7       56.15699  -0.00000   0.00000  -0.00000  -0.00000  56.15699
    Y7        1.25853   0.00000   0.00000  -0.00000  -0.00000   1.25852
    Z7        7.74204  -0.00000   0.00000   0.00000   0.00000   7.74204
         Item               Value     Threshold  Converged?
 Maximum Force            0.006195     0.000450     NO 
 RMS     Force            0.002159     0.000300     NO 
 Maximum Displacement     0.173652     0.001800     NO 
 RMS     Displacement     0.059461     0.001200     NO 
 Predicted change in Energy=-1.327058D-03
 GradGradGradGradGradGradGradGradGradGradGradGradGradGradGradGradGradGrad

 Leave Link  103 at Tue Nov 21 11:50:26 2023, MaxMem=   104857600 cpu:               2.9 elap:               1.1
 (Enter /home/sekinelabo/g16/l9999.exe)
 1\1\GINC-SEKINELABO-XA7R-R37\Force\UB3LYP\6-311+G(d)\Na7(2)\SEKINELABO
 \21-Nov-2023\0\\#P B3LYP/6-311+g(d) force\\DPGEN\\0,2\Na,8.65232,29.77
 52,29.4115\Na,10.7649,2.24775,29.2313\Na,9.77118,5.63063,29.1498\Na,7.
 15772,5.24027,1.07051\Na,5.19398,3.20938,2.24339\Na,3.05197,1.38272,3.
 76423\Na,29.717,0.665983,4.09691\\Version=ES64L-G16RevB.01\State=2-A\H
 F=-1136.0667665\S2=1.770407\S2-1=0.\S2A=0.817799\RMSD=3.692e-09\RMSF=2
 .159e-03\Dipole=-0.0217012,0.0167549,0.037578\Quadrupole=-0.470768,6.4
 338388,-5.9630709,1.7448352,-2.8487536,-3.6159763\PG=C01 [X(Na7)]\\@


 KINETICS       FACT
 ---------  =  -------
 MECHANISM     FICTION
 Job cpu time:       0 days  0 hours 12 minutes 22.2 seconds.
 Elapsed time:       0 days  0 hours 10 minutes  9.0 seconds.
 File lengths (MBytes):  RWF=     46 Int=      0 D2E=      0 Chk=      4 Scr=      1
 Normal termination of Gaussian 16 at Tue Nov 21 11:50:27 2023.
