9.530799999999999272e+00 1.106520000000000004e-01 1.888190000000000035e+00 1.121979999999999933e+01 2.135429999999999939e+00 7.832930000000000170e-01 9.303209999999999980e+00 4.429829999999999934e+00 3.281499999999999972e-01 6.973609999999999864e+00 4.474739999999999718e+00 2.437759999999999927e+00 4.789620000000000211e+00 2.688369999999999926e+00 1.712360000000000104e+00 2.427750000000000075e+00 1.916220000000000034e+00 2.998140000000000072e+01 6.421999999999999931e-02 2.396720000000000184e+00 1.836529999999999996e+00
9.230539999999999523e+00 2.837749999999999995e-01 1.855990000000000029e+00 1.115900000000000070e+01 2.185529999999999973e+00 1.927030000000000132e-01 9.168990000000000862e+00 4.611209999999999809e+00 1.237000000000000044e-01 7.107429999999999914e+00 4.746819999999999595e+00 2.374670000000000059e+00 4.801929999999999588e+00 2.136979999999999880e+00 1.969049999999999967e+00 2.409400000000000208e+00 2.030539999999999790e+00 1.057000000000000023e-01 4.316829999999999834e-01 2.157099999999999795e+00 2.345930000000000071e+00
9.291819999999999524e+00 3.021590000000000109e-01 1.812810000000000032e+00 1.107199999999999918e+01 2.143899999999999917e+00 1.686199999999999921e-01 9.131579999999999586e+00 4.634149999999999991e+00 1.315429999999999933e-01 7.029950000000000365e+00 4.692989999999999995e+00 2.330929999999999946e+00 4.865149999999999864e+00 2.193280000000000118e+00 1.936989999999999990e+00 2.465840000000000032e+00 2.059649999999999981e+00 2.051790000000000003e-01 4.526700000000000168e-01 2.125820000000000043e+00 2.381600000000000161e+00
9.327450000000000685e+00 3.059169999999999945e-01 1.784110000000000085e+00 1.105129999999999946e+01 2.055200000000000138e+00 1.325270000000000059e-01 9.069750000000000867e+00 4.719619999999999926e+00 1.132800000000000057e-01 6.975959999999999717e+00 4.698599999999999888e+00 2.321800000000000086e+00 4.921660000000000146e+00 2.191609999999999836e+00 1.922800000000000065e+00 2.514499999999999957e+00 2.085069999999999979e+00 2.453069999999999973e-01 4.483429999999999915e-01 2.095940000000000136e+00 2.447849999999999859e+00
9.342280000000000584e+00 2.996887699999999910e+01 1.825849999999999973e+00 1.073959999999999937e+01 2.303659999999999819e+00 2.963500000000000156e+01 9.141529999999999490e+00 4.777059999999999640e+00 2.994539999999999935e+01 6.703050000000000175e+00 4.776729999999999698e+00 2.295180000000000220e+00 5.477940000000000254e+00 2.235090000000000021e+00 2.059629999999999850e+00 2.424170000000000158e+00 2.174269999999999925e+00 4.619840000000000058e-01 4.803729999999999944e-01 1.916269999999999918e+00 2.744650000000000034e+00
9.412509999999999266e+00 2.997149999999999892e+01 1.769009999999999971e+00 1.067149999999999999e+01 2.249229999999999841e+00 2.962460000000000093e+01 9.122410000000000352e+00 4.831859999999999822e+00 2.996199999999999974e+01 6.706870000000000331e+00 4.789959999999999773e+00 2.240219999999999878e+00 5.452950000000000408e+00 2.237800000000000011e+00 2.036439999999999806e+00 2.431200000000000028e+00 2.175640000000000018e+00 6.248960000000000070e-01 5.115279999999999827e-01 1.896020000000000039e+00 2.710449999999999804e+00
9.530760000000000787e+00 2.995949999999999847e+01 1.669669999999999987e+00 1.060970000000000013e+01 2.070990000000000109e+00 2.957740000000000080e+01 9.172810000000000130e+00 5.037659999999999805e+00 2.987930000000000064e+01 6.651799999999999713e+00 4.986749999999999794e+00 2.256040000000000045e+00 5.514269999999999783e+00 2.055000000000000160e+00 2.075790000000000024e+00 2.441260000000000208e+00 2.213670000000000027e+00 6.854430000000000245e-01 3.883460000000000245e-01 1.828389999999999960e+00 2.823989999999999778e+00
9.767640000000000100e+00 2.987219999999999942e+01 1.497759999999999980e+00 1.049319999999999986e+01 2.085570000000000146e+00 2.944170000000000087e+01 9.132059999999999178e+00 5.053110000000000213e+00 2.994829999999999970e+01 6.639750000000000263e+00 5.149079999999999657e+00 2.036010000000000097e+00 5.563860000000000028e+00 1.998199999999999976e+00 2.133329999999999949e+00 2.653049999999999908e+00 2.299960000000000004e+00 8.035379999999999745e-01 5.940999999999999753e-02 1.693789999999999907e+00 3.107029999999999959e+00
9.825969999999999871e+00 2.984700000000000131e+01 1.454709999999999948e+00 1.046439999999999948e+01 2.139489999999999892e+00 2.940800000000000125e+01 9.122429999999999595e+00 4.995940000000000047e+00 2.998300000000000054e+01 6.613000000000000433e+00 5.109309999999999796e+00 1.962509999999999977e+00 5.531159999999999854e+00 2.077459999999999862e+00 2.118930000000000202e+00 2.690949999999999953e+00 2.299970000000000070e+00 9.505040000000000155e-01 6.108000000000000235e-02 1.682749999999999968e+00 3.090050000000000185e+00
9.860670000000000712e+00 2.981919999999999860e+01 1.427450000000000108e+00 1.047719999999999985e+01 2.141669999999999963e+00 2.934870000000000090e+01 9.125740000000000407e+00 4.998899999999999899e+00 2.999569999999999936e+01 6.554979999999999585e+00 5.122700000000000031e+00 1.921769999999999978e+00 5.518839999999999968e+00 2.090969999999999995e+00 2.112880000000000091e+00 2.709620000000000140e+00 2.305890000000000217e+00 1.091900000000000093e+00 6.192099999999999688e-02 1.672670000000000101e+00 3.069329999999999892e+00
9.871359999999999246e+00 2.978689999999999927e+01 1.417300000000000004e+00 1.052940000000000076e+01 2.099650000000000016e+00 2.926089999999999947e+01 9.142670000000000741e+00 5.054619999999999891e+00 2.999010000000000176e+01 6.466529999999999667e+00 5.192429999999999879e+00 1.910979999999999901e+00 5.535160000000000302e+00 2.037720000000000198e+00 2.116270000000000095e+00 2.726249999999999840e+00 2.323240000000000194e+00 1.207829999999999959e+00 3.759599999999999748e-02 1.657359999999999944e+00 3.064329999999999998e+00
9.623820000000000263e+00 5.800000000000000294e-02 5.802370000000000028e-01 1.113339999999999996e+01 2.319770000000000110e+00 2.874010000000000176e+01 9.559559999999999391e+00 5.031139999999999723e+00 2.976099999999999923e+01 6.656780000000000364e+00 5.085659999999999847e+00 1.134269999999999889e+00 5.726869999999999905e+00 2.552059999999999995e+00 2.360180000000000167e+00 2.511489999999999778e+00 1.788960000000000106e+00 3.383319999999999883e+00 2.909700000000000131e+01 1.316389999999999949e+00 3.008550000000000058e+00
9.056710000000000704e+00 6.358850000000000335e-01 1.487469999999999903e-01 1.148729999999999940e+01 2.293460000000000054e+00 2.868819999999999837e+01 9.903560000000000585e+00 5.222649999999999793e+00 2.937020000000000053e+01 6.990090000000000359e+00 4.674619999999999997e+00 9.959930000000000172e-01 5.056440000000000268e+00 2.791409999999999947e+00 2.432259999999999867e+00 2.392809999999999881e+00 1.359410000000000007e+00 4.067300000000000360e+00 2.942200000000000060e+01 1.174530000000000074e+00 3.264969999999999928e+00
8.652319999999999567e+00 2.977520000000000167e+01 2.941150000000000020e+01 1.076490000000000080e+01 2.247749999999999915e+00 2.923130000000000095e+01 9.771179999999999310e+00 5.630630000000000024e+00 2.914979999999999905e+01 7.157720000000000304e+00 5.240269999999999762e+00 1.070510000000000073e+00 5.193979999999999819e+00 3.209379999999999900e+00 2.243390000000000217e+00 3.051969999999999850e+00 1.382719999999999949e+00 3.764229999999999965e+00 2.971699999999999875e+01 6.659829999999999917e-01 4.096910000000000274e+00
8.697670000000000456e+00 2.968980000000000175e+01 2.932590000000000074e+01 1.062010000000000076e+01 2.261429999999999829e+00 2.926940000000000097e+01 9.784810000000000230e+00 5.579290000000000305e+00 2.914480000000000004e+01 7.166619999999999990e+00 5.395419999999999661e+00 1.077720000000000011e+00 5.275120000000000253e+00 3.291510000000000158e+00 2.193070000000000075e+00 3.044150000000000134e+00 1.334140000000000104e+00 3.759220000000000006e+00 2.972050000000000125e+01 6.003950000000000120e-01 4.197530000000000427e+00
9.262430000000000163e+00 2.900910000000000011e+01 2.854080000000000084e+01 9.612360000000000682e+00 1.914740000000000109e+00 2.936690000000000111e+01 9.542759999999999465e+00 5.342690000000000161e+00 2.937330000000000041e+01 7.028100000000000236e+00 6.193710000000000271e+00 1.189470000000000027e+00 5.289240000000000386e+00 3.927669999999999995e+00 2.296079999999999899e+00 3.049040000000000195e+00 1.596400000000000041e+00 3.261350000000000193e+00 5.250660000000000327e-01 1.676900000000000057e-01 4.939869999999999983e+00
9.737470000000000070e+00 2.867089999999999961e+01 2.807900000000000063e+01 9.418189999999999173e+00 1.527859999999999996e+00 2.887219999999999942e+01 8.994260000000000588e+00 4.815579999999999750e+00 2.986830000000000140e+01 7.002080000000000304e+00 6.740529999999999688e+00 1.231980000000000075e+00 4.889330000000000176e+00 4.568039999999999878e+00 2.554009999999999891e+00 2.776879999999999793e+00 1.853890000000000038e+00 3.130389999999999784e+00 1.490799999999999903e+00 2.997515599999999836e+01 5.231810000000000294e+00
