-3.091403278215030150e+04
-3.091498569741313986e+04
-3.091495832493548369e+04
-3.091495994782255730e+04
-3.091458425762794650e+04
-3.091455695589990137e+04
-3.091459259383612516e+04
-3.091451467076624613e+04
-3.091454388164515331e+04
-3.091453835065878593e+04
-3.091450194209609617e+04
-3.091378798661483961e+04
-3.091406426000979627e+04
-3.091395158364585586e+04
-3.091398205931000120e+04
-3.091452471312833950e+04
-3.091397199245765660e+04
