-1.662352028547675054e-01 -2.271959095817494834e-01 8.774281070860937004e-02 4.402177376401895659e-01 -4.980360932457607304e-02 -6.553166572702008585e-02 -2.293888550713448771e-01 1.793595028705477490e-01 -6.648539081250350036e-02 1.761538511840735899e-01 2.903232336997790264e-01 1.536327339797370073e-01 -4.929818696555801072e-01 -1.980646912916011193e-01 -1.070802334492841762e-01 0.000000000000000000e+00 -0.000000000000000000e+00 0.000000000000000000e+00 2.722342873353619241e-01 5.381473627599940232e-03 -2.278254699538621430e-03
-7.532325012759216731e-02 5.920736849224170206e-02 -2.548889040666525024e-02 1.840294493504777695e-01 -1.367343627435992914e-01 -2.091001240823580840e-02 -9.385504333711536945e-03 4.940323710720539996e-02 -1.089229432372983142e-01 -2.202126385522619745e-01 -5.120918011697397215e-02 1.242867771358075052e-01 3.210945074100173269e-01 9.901103119883161718e-02 2.151031876616118221e-01 -1.170427448021475608e-01 -7.650523777060300006e-03 -2.897873129125407288e-01 -8.315987036684929778e-02 -1.202751873857768779e-02 1.057192970114557290e-01
-1.348530864049779232e-01 -1.652844088271302261e-02 3.862635447171943598e-02 2.386012213038636309e-01 -6.561949461826964425e-02 -8.228872912173285092e-02 1.189958063469659030e-02 5.627091132900610693e-02 -1.179373859321006801e-01 -1.775685751044822625e-01 5.086105272015924161e-03 1.384042943848929896e-01 3.296560759565557164e-01 4.438480327598832292e-02 2.446864059248770873e-01 -1.594774175911636838e-01 -8.825312330624442841e-03 -3.490814304326150252e-01 -1.082578502165595230e-01 -1.476857204540324257e-02 1.275905421270265017e-01
-1.733795277995908435e-01 -6.801206057380813907e-02 8.495275217147886526e-02 2.189118145113133906e-01 4.567215473525813862e-02 -1.269535769771972522e-01 6.113657019775103202e-02 -3.183694463661769069e-03 -1.075388668691055205e-01 -1.366271991549786458e-01 4.253741407983382961e-02 1.328966824257736268e-01 3.200797957525069459e-01 2.718067642663637377e-03 2.450416295670035660e-01 -2.209587213292760199e-01 -1.703664517558155104e-03 -3.114664451840199466e-01 -6.916273217772588022e-02 -1.802821690272754518e-02 8.306787628813414037e-02
-0.000000000000000000e+00 -6.684868771922374886e-07 -0.000000000000000000e+00 5.817033965744664026e-02 -9.003350954847726129e-02 -1.138232605795222625e-02 -5.817136809879616677e-02 9.003428087948939229e-02 1.138258316828960788e-02 1.655352456722797294e-01 2.965642271852457212e-01 3.113709029826489463e-03 -1.178754223407917079e-01 -2.942385613394939425e-01 3.063109715429784830e-02 6.315864015712259645e-03 3.221926770830417508e-02 -9.285241586546197357e-02 -5.397460748378329898e-02 -3.454503639819091892e-02 5.910735257100024898e-02
-0.000000000000000000e+00 -6.684868771922374886e-07 -5.142206747632596066e-08 1.200448165234829431e-02 -2.000909778605057532e-02 -2.653892902453182639e-03 -1.200540724956286782e-02 2.000986911706272020e-02 2.654098590723087767e-03 1.520938771884404739e-01 2.693261123092383080e-01 -3.830686916648901996e-03 -5.945141762448435258e-02 -2.693006583858374992e-01 5.807603158569505514e-02 1.100507320211890905e-01 5.871597921543793286e-02 -2.730216620325593979e-01 -2.026922145658631991e-01 -5.874153598297367218e-02 2.187761116752433288e-01
-5.142206747632596066e-08 -6.684868771922374886e-07 -5.142206747632596066e-08 -9.626586412660795289e-02 1.987832632625153029e-01 2.020820403131890972e-02 9.626519563973076621e-02 -1.987825947756381162e-01 -2.020794692098152809e-02 -2.487645358302220926e-03 -5.078921609189480935e-02 -2.823436601129377180e-02 6.519788508703125429e-02 4.331774395378708287e-02 6.258050185248625885e-02 1.868019729625988376e-02 5.362272627604279529e-02 -1.127172233301739629e-01 -8.138971711604424397e-02 -4.615120271586759665e-02 7.837083037864410462e-02
-5.142206747632596066e-08 -6.684868771922374886e-07 -5.142206747632596066e-08 -8.968857031984606154e-02 1.954757444603705541e-01 3.337461872036226462e-02 8.968851889777859632e-02 -1.954754359279656795e-01 -3.337446445415983426e-02 -5.116896806020748006e-02 -1.680605319839746370e-01 -2.428468843050464801e-02 1.537831949491727523e-01 1.384670807292815720e-01 7.731446684647792778e-02 -2.951973772096574966e-01 1.341015528888114122e-02 1.231165137241812813e-01 1.925832017427597243e-01 1.618370734235173233e-02 -1.761463949842895227e-01
-5.142206747632596066e-08 -6.684868771922374886e-07 -5.142206747632596066e-08 -6.157643456294352446e-02 1.311509032349523485e-01 2.638939365231067133e-02 6.157648598501099663e-02 -1.311505432804800086e-01 -2.638929080817571660e-02 -3.171188616851526587e-02 -9.649757196265629222e-02 -2.567246718755573573e-02 2.317124640343976305e-01 5.582744741909027864e-02 1.174013623007274520e-01 -3.753243740367531167e-01 2.962044784011813592e-02 5.313781617974104587e-02 1.753237961708707382e-01 1.104998523585273146e-02 -1.448667112929127865e-01
-5.142206747632596066e-08 -6.684868771922374886e-07 -5.142206747632596066e-08 -6.778235819839138754e-02 1.433113480179563359e-01 3.244454778591795291e-02 6.778251246459382484e-02 -1.433109366414165309e-01 -3.244439351971552948e-02 -2.930600189750040205e-02 -8.763760115855280530e-02 -2.466104654236387847e-02 3.068775913045000969e-01 3.718653658238230825e-02 1.354077248247775589e-01 -4.240468858147068976e-01 4.720777193630366214e-02 -3.105892875570087262e-05 1.464751421415047827e-01 3.243549750204212639e-03 -1.107156707757254721e-01
-5.142206747632596066e-08 -7.199089446685633434e-07 -5.142206747632596066e-08 -1.008552322268025797e-01 2.149612113333096985e-01 5.305039866503129947e-02 1.008555921812749057e-01 -2.149608513788373310e-01 -5.305014155469391091e-02 -4.396761604255288586e-02 -1.491089804376421746e-01 -1.900852719709622551e-02 3.536841168482859898e-01 8.562319308723520539e-02 1.266286923548818055e-01 -4.415535286870220788e-01 6.434705555856795600e-02 -1.447700892281247528e-02 1.318367707709515724e-01 -8.609082536886491534e-04 -9.314336192324301766e-02
-8.816745414182886043e-02 1.771898515775191252e-01 2.046248615498933929e-02 -1.017191229604048619e-01 1.752680032276589250e-01 6.599348731502496790e-02 1.017185058955951404e-01 -1.752656378125549974e-01 -6.599209891920310156e-02 1.436058421983932576e-01 6.198595990832497793e-02 -1.143967194760182604e-01 -1.490544730461172973e-01 -3.125042967718946185e-01 1.261005877218999427e-01 9.363778510202788730e-02 7.332920519499519507e-02 -3.216357760922731318e-02 -2.108304766529364260e-05 -3.085324048579557216e-06 -4.165187465582402178e-06
-1.421021066791830767e-01 2.972369820940384821e-01 5.763981818729338458e-02 -1.276075114092936891e-01 2.360051268052538453e-01 5.494381061157709023e-02 1.276086426947781460e-01 -2.360045097404441516e-01 -5.494000537858384492e-02 2.838055894912896449e-01 -1.337599046724987084e-01 -1.644496229837195678e-01 -2.520358534968634712e-01 -2.564189162623430884e-01 1.761578106832692725e-01 1.103401354169458587e-01 9.294189026287077993e-02 -6.935001134747467710e-02 -8.896017673404390559e-06 -6.684868771922374886e-07 -1.748350294195082451e-06
-5.142206747632596066e-08 -2.262570968958341846e-06 -1.542662024289778820e-07 -9.357427884869463919e-02 3.185608393013237838e-01 -7.664253469076479260e-03 9.357402173835724368e-02 -3.185593480613669870e-01 7.665024800088623275e-03 1.010555211796228675e-01 1.036112493552637515e-01 -6.091144438633967761e-02 -6.389366718962920244e-02 -7.108190658007731977e-02 3.502860952073828804e-02 -3.715953999695723736e-02 -3.252918850898398745e-02 2.588232064492661938e-02 -2.005460631576712254e-06 6.170648097159115280e-07 -1.028441349526519213e-07
-0.000000000000000000e+00 -2.571103373816297610e-06 -1.028441349526519213e-07 -6.990891779887485613e-02 2.776620922457579965e-01 -1.043137776411253055e-02 6.990860926646999540e-02 -2.776603953175312833e-01 1.043220051719215107e-02 9.958104481680669917e-02 1.095318833603529662e-01 -5.930733299141568299e-02 -1.212511782264775601e-01 -1.275000907103356340e-01 7.501070680147105263e-02 2.167234455857233733e-02 1.796846446032005287e-02 -1.570399087486509110e-02 -1.902616496624060333e-06 5.656427422395854614e-07 -1.028441349526519213e-07
-3.085324048579557640e-07 -3.702388858295468744e-06 2.571103373816298033e-07 -5.854299538044757494e-03 2.888355418656213813e-01 5.459480903961526788e-04 5.854402382179710491e-03 -2.888327650739777042e-01 -5.437883635621469864e-04 2.468783743951904336e-02 2.735911100077922237e-02 -1.735952433726540428e-02 2.474897827774839507e-02 2.653934040107163925e-02 -9.740882242040427167e-04 -1.954556898540547594e-01 -1.354235113994927964e-01 1.139099581852873605e-01 1.460190798250572408e-01 8.152598559485650653e-02 -9.557881388305676518e-02
-1.028441349526519213e-07 -2.159726834005689924e-06 1.028441349526519213e-07 -3.727164010405562694e-02 2.891694767718126502e-01 8.762916793948669070e-02 3.727220574679786236e-02 -2.891673684670461597e-01 -8.762741958919248453e-02 -3.531559607932366340e-02 -3.496402340398802044e-02 2.393003043112042899e-02 -3.144582839139275360e-02 -5.212259030155594330e-02 -7.547473953837742153e-03 6.676085882797418158e-02 8.708712792621872700e-02 -1.638440767171183560e-02 1.542662024289778820e-07 -4.113765398106076853e-07 -5.142206747632596066e-08
