 Entering Gaussian System, Link 0=g16
 Initial command:
 /home/sekinelabo/g16/l1.exe "/home/sekinelabo/g16temp/Gau-934223.inp" -scrdir="/home/sekinelabo/g16temp/"
 Entering Link 1 = /home/sekinelabo/g16/l1.exe PID=    934271.
  
 Copyright (c) 1988-2017, Gaussian, Inc.  All Rights Reserved.
  
 This is part of the Gaussian(R) 16 program.  It is based on
 the Gaussian(R) 09 system (copyright 2009, Gaussian, Inc.),
 the Gaussian(R) 03 system (copyright 2003, Gaussian, Inc.),
 the Gaussian(R) 98 system (copyright 1998, Gaussian, Inc.),
 the Gaussian(R) 94 system (copyright 1995, Gaussian, Inc.),
 the Gaussian 92(TM) system (copyright 1992, Gaussian, Inc.),
 the Gaussian 90(TM) system (copyright 1990, Gaussian, Inc.),
 the Gaussian 88(TM) system (copyright 1988, Gaussian, Inc.),
 the Gaussian 86(TM) system (copyright 1986, Carnegie Mellon
 University), and the Gaussian 82(TM) system (copyright 1983,
 Carnegie Mellon University). Gaussian is a federally registered
 trademark of Gaussian, Inc.
  
 This software contains proprietary and confidential information,
 including trade secrets, belonging to Gaussian, Inc.
  
 This software is provided under written license and may be
 used, copied, transmitted, or stored only in accord with that
 written license.
  
 The following legend is applicable only to US Government
 contracts under FAR:
  
                    RESTRICTED RIGHTS LEGEND
  
 Use, reproduction and disclosure by the US Government is
 subject to restrictions as set forth in subparagraphs (a)
 and (c) of the Commercial Computer Software - Restricted
 Rights clause in FAR 52.227-19.
  
 Gaussian, Inc.
 340 Quinnipiac St., Bldg. 40, Wallingford CT 06492
  
  
 ---------------------------------------------------------------
 Warning -- This program may not be used in any manner that
 competes with the business of Gaussian, Inc. or will provide
 assistance to any competitor of Gaussian, Inc.  The licensee
 of this program is prohibited from giving any competitor of
 Gaussian, Inc. access to this program.  By using this program,
 the user acknowledges that Gaussian, Inc. is engaged in the
 business of creating and licensing software in the field of
 computational chemistry and represents and warrants to the
 licensee that it is not a competitor of Gaussian, Inc. and that
 it will not use this program in any manner prohibited above.
 ---------------------------------------------------------------
  

 Cite this work as:
 Gaussian 16, Revision B.01,
 M. J. Frisch, G. W. Trucks, H. B. Schlegel, G. E. Scuseria, 
 M. A. Robb, J. R. Cheeseman, G. Scalmani, V. Barone, 
 G. A. Petersson, H. Nakatsuji, X. Li, M. Caricato, A. V. Marenich, 
 J. Bloino, B. G. Janesko, R. Gomperts, B. Mennucci, H. P. Hratchian, 
 J. V. Ortiz, A. F. Izmaylov, J. L. Sonnenberg, D. Williams-Young, 
 F. Ding, F. Lipparini, F. Egidi, J. Goings, B. Peng, A. Petrone, 
 T. Henderson, D. Ranasinghe, V. G. Zakrzewski, J. Gao, N. Rega, 
 G. Zheng, W. Liang, M. Hada, M. Ehara, K. Toyota, R. Fukuda, 
 J. Hasegawa, M. Ishida, T. Nakajima, Y. Honda, O. Kitao, H. Nakai, 
 T. Vreven, K. Throssell, J. A. Montgomery, Jr., J. E. Peralta, 
 F. Ogliaro, M. J. Bearpark, J. J. Heyd, E. N. Brothers, K. N. Kudin, 
 V. N. Staroverov, T. A. Keith, R. Kobayashi, J. Normand, 
 K. Raghavachari, A. P. Rendell, J. C. Burant, S. S. Iyengar, 
 J. Tomasi, M. Cossi, J. M. Millam, M. Klene, C. Adamo, R. Cammi, 
 J. W. Ochterski, R. L. Martin, K. Morokuma, O. Farkas, 
 J. B. Foresman, and D. J. Fox, Gaussian, Inc., Wallingford CT, 2016.
 
 ******************************************
 Gaussian 16:  ES64L-G16RevB.01 20-Dec-2017
                21-Nov-2023 
 ******************************************
 %nprocshared=14
 Will use up to   14 processors via shared memory.
 -------------------------
 #P B3LYP/6-311+g(d) force
 -------------------------
 1/10=7,30=1,38=1/1,3;
 2/12=2,17=6,18=5,40=1/2;
 3/5=4,6=6,7=11,11=2,25=1,30=1,71=1,74=-5/1,2,3;
 4//1;
 5/5=2,38=5/2;
 6/7=2,8=2,9=2,10=2,28=1/1;
 7/29=1/1,2,3,16;
 1/10=7,30=1/3;
 99//99;
 Leave Link    1 at Tue Nov 21 11:40:17 2023, MaxMem=           0 cpu:               0.5 elap:               0.5
 (Enter /home/sekinelabo/g16/l101.exe)
 -----
 DPGEN
 -----
 Symbolic Z-matrix:
 Charge =  0 Multiplicity = 2
 Na                    9.23054   0.28378   1.85599 
 Na                    11.159    2.18553   0.1927 
 Na                    9.16899   4.61121   0.1237 
 Na                    7.10743   4.74682   2.37467 
 Na                    4.80193   2.13698   1.96905 
 Na                    2.4094    2.03054   0.1057 
 Na                    0.43168   2.1571    2.34593 
 
 ITRead=  0  0  0  0  0  0  0
 MicOpt= -1 -1 -1 -1 -1 -1 -1
 NAtoms=      7 NQM=        7 NQMF=       0 NMMI=      0 NMMIF=      0
                NMic=       0 NMicF=      0.
                    Isotopes and Nuclear Properties:
 (Nuclear quadrupole moments (NQMom) in fm**2, nuclear magnetic moments (NMagM)
  in nuclear magnetons)

  Atom         1           2           3           4           5           6           7
 IAtWgt=          23          23          23          23          23          23          23
 AtmWgt=  22.9897697  22.9897697  22.9897697  22.9897697  22.9897697  22.9897697  22.9897697
 NucSpn=           3           3           3           3           3           3           3
 AtZEff=  -0.0000000  -0.0000000  -0.0000000  -0.0000000  -0.0000000  -0.0000000  -0.0000000
 NQMom=   10.4000000  10.4000000  10.4000000  10.4000000  10.4000000  10.4000000  10.4000000
 NMagM=    2.2175200   2.2175200   2.2175200   2.2175200   2.2175200   2.2175200   2.2175200
 AtZNuc=  11.0000000  11.0000000  11.0000000  11.0000000  11.0000000  11.0000000  11.0000000
 Leave Link  101 at Tue Nov 21 11:40:20 2023, MaxMem=   104857600 cpu:               2.5 elap:               2.6
 (Enter /home/sekinelabo/g16/l103.exe)

 GradGradGradGradGradGradGradGradGradGradGradGradGradGradGradGradGradGrad
 Berny optimization.
 Initialization pass.
 Trust Radius=3.00D-01 FncErr=1.00D-07 GrdErr=1.00D-07 EigMax=2.50D+02 EigMin=1.00D-04
 Number of steps in this run=      2 maximum allowed number of steps=      2.
 GradGradGradGradGradGradGradGradGradGradGradGradGradGradGradGradGradGrad

 Leave Link  103 at Tue Nov 21 11:40:20 2023, MaxMem=   104857600 cpu:               0.4 elap:               0.5
 (Enter /home/sekinelabo/g16/l202.exe)
                          Input orientation:                          
 ---------------------------------------------------------------------
 Center     Atomic      Atomic             Coordinates (Angstroms)
 Number     Number       Type             X           Y           Z
 ---------------------------------------------------------------------
      1         11           0        9.230540    0.283775    1.855990
      2         11           0       11.159000    2.185530    0.192703
      3         11           0        9.168990    4.611210    0.123700
      4         11           0        7.107430    4.746820    2.374670
      5         11           0        4.801930    2.136980    1.969050
      6         11           0        2.409400    2.030540    0.105700
      7         11           0        0.431683    2.157100    2.345930
 ---------------------------------------------------------------------
                    Distance matrix (angstroms):
                    1          2          3          4          5
     1  Na   0.000000
     2  Na   3.178389   0.000000
     3  Na   4.661685   3.138284   0.000000
     4  Na   4.969446   5.266536   3.055370   0.000000
     5  Na   4.802056   6.600765   5.347742   3.505870   0.000000
     6  Na   7.255526   8.751405   7.235485   5.881997   3.034403
     7  Na   9.009399  10.941322   9.343527   7.160522   4.386514
                    6          7
     6  Na   0.000000
     7  Na   2.990989   0.000000
 Stoichiometry    Na7(2)
 Framework group  C1[X(Na7)]
 Deg. of freedom    15
 Full point group                 C1      NOp   1
 Largest Abelian subgroup         C1      NOp   1
 Largest concise Abelian subgroup C1      NOp   1
                         Standard orientation:                         
 ---------------------------------------------------------------------
 Center     Atomic      Atomic             Coordinates (Angstroms)
 Number     Number       Type             X           Y           Z
 ---------------------------------------------------------------------
      1         11           0        2.698852    2.509663   -0.703857
      2         11           0        4.884908    0.633310    0.638757
      3         11           0        3.046214   -1.907729    0.744350
      4         11           0        0.779176   -2.035091   -1.300058
      5         11           0       -1.611795    0.402818   -0.505716
      6         11           0       -3.807101    0.255476    1.583908
      7         11           0       -5.990255    0.141554   -0.457384
 ---------------------------------------------------------------------
 Rotational constants (GHZ):           1.0543590           0.2195444           0.2021669
 Leave Link  202 at Tue Nov 21 11:40:21 2023, MaxMem=   104857600 cpu:               0.8 elap:               0.8
 (Enter /home/sekinelabo/g16/l301.exe)
 Standard basis: 6-311+G(d) (5D, 7F)
 Ernie: Thresh=  0.10000D-02 Tol=  0.10000D-05 Strict=F.
 There are   217 symmetry adapted cartesian basis functions of A   symmetry.
 There are   210 symmetry adapted basis functions of A   symmetry.
   210 basis functions,   350 primitive gaussians,   217 cartesian basis functions
    39 alpha electrons       38 beta electrons
       nuclear repulsion energy       275.2927984283 Hartrees.
 IExCor=  402 DFT=T Ex+Corr=B3LYP ExCW=0 ScaHFX=  0.200000
 ScaDFX=  0.800000  0.720000  1.000000  0.810000 ScalE2=  1.000000  1.000000
 IRadAn=      5 IRanWt=     -1 IRanGd=            0 ICorTp=0 IEmpDi=  4
 NAtoms=    7 NActive=    7 NUniq=    7 SFac= 1.00D+00 NAtFMM=   60 NAOKFM=F Big=F
 Integral buffers will be    131072 words long.
 Raffenetti 2 integral format.
 Two-electron integral symmetry is turned on.
 Leave Link  301 at Tue Nov 21 11:40:22 2023, MaxMem=   104857600 cpu:               0.8 elap:               0.7
 (Enter /home/sekinelabo/g16/l302.exe)
 NPDir=0 NMtPBC=     1 NCelOv=     1 NCel=       1 NClECP=     1 NCelD=      1
         NCelK=      1 NCelE2=     1 NClLst=     1 CellRange=     0.0.
 One-electron integrals computed using PRISM.
 One-electron integral symmetry used in STVInt
 NBasis=   210 RedAO= T EigKep=  6.17D-06  NBF=   210
 NBsUse=   210 1.00D-06 EigRej= -1.00D+00 NBFU=   210
 Precomputing XC quadrature grid using
 IXCGrd= 4 IRadAn=           5 IRanWt=          -1 IRanGd=           0 AccXCQ= 0.00D+00.
 Generated NRdTot=       0 NPtTot=           0 NUsed=           0 NTot=          32
 NSgBfM=   202   202   202   202   202 MxSgAt=     7 MxSgA2=     7.
 Leave Link  302 at Tue Nov 21 11:40:54 2023, MaxMem=   104857600 cpu:              29.1 elap:              31.4
 (Enter /home/sekinelabo/g16/l303.exe)
 DipDrv:  MaxL=1.
 Leave Link  303 at Tue Nov 21 11:40:56 2023, MaxMem=   104857600 cpu:               2.4 elap:               2.4
 (Enter /home/sekinelabo/g16/l401.exe)
 ExpMin= 7.60D-03 ExpMax= 3.62D+04 ExpMxC= 1.21D+03 IAcc=3 IRadAn=         5 AccDes= 0.00D+00
 Harris functional with IExCor=  402 and IRadAn=       5 diagonalized for initial guess.
 HarFok:  IExCor=  402 AccDes= 0.00D+00 IRadAn=         5 IDoV= 1 UseB2=F ITyADJ=14
 ICtDFT=  3500011 ScaDFX=  1.000000  1.000000  1.000000  1.000000
 FoFCou: FMM=F IPFlag=           0 FMFlag=      100000 FMFlg1=           0
         NFxFlg=           0 DoJE=T BraDBF=F KetDBF=T FulRan=T
         wScrn=  0.000000 ICntrl=       500 IOpCl=  0 I1Cent=   200000004 NGrid=           0
         NMat0=    1 NMatS0=      1 NMatT0=    0 NMatD0=    1 NMtDS0=    0 NMtDT0=    0
 Petite list used in FoFCou.
 Harris En= -1135.87672087312    
 JPrj=0 DoOrth=F DoCkMO=F.
 Initial guess <Sx>= 0.0000 <Sy>= 0.0000 <Sz>= 0.5000 <S**2>= 0.7500 S= 0.5000
 Leave Link  401 at Tue Nov 21 11:41:14 2023, MaxMem=   104857600 cpu:              16.9 elap:              18.1
 (Enter /home/sekinelabo/g16/l502.exe)
 Integral symmetry usage will be decided dynamically.
 UHF open shell SCF:
 Using DIIS extrapolation, IDIIS=  1040.
 NGot=   104857600 LenX=   104758426 LenY=   104710896
 Requested convergence on RMS density matrix=1.00D-08 within 128 cycles.
 Requested convergence on MAX density matrix=1.00D-06.
 Requested convergence on             energy=1.00D-06.
 No special actions if energy rises.
 Fock matrices will be formed incrementally for  20 cycles.

 Cycle   1  Pass 1  IDiag  1:
 FoFJK:  IHMeth= 1 ICntrl=       0 DoSepK=F KAlg= 0 I1Cent=           0 FoldK=F
 IRaf= 840000000 NMat=       1 IRICut=       1 DoRegI=T DoRafI=F ISym2E= 0 IDoP0=0 IntGTp=1.
 FoFCou: FMM=F IPFlag=           0 FMFlag=      100000 FMFlg1=           0
         NFxFlg=           0 DoJE=F BraDBF=F KetDBF=F FulRan=T
         wScrn=  0.000000 ICntrl=         0 IOpCl=  1 I1Cent=           0 NGrid=           0
         NMat0=    1 NMatS0=      1 NMatT0=    0 NMatD0=    1 NMtDS0=    0 NMtDT0=    0
 Symmetry not used in FoFCou.
 E= -1136.07593420199    
 DIIS: error= 1.32D-02 at cycle   1 NSaved=   1.
 NSaved= 1 IEnMin= 1 EnMin= -1136.07593420199     IErMin= 1 ErrMin= 1.32D-02
 ErrMax= 1.32D-02  0.00D+00 EMaxC= 1.00D-01 BMatC= 1.84D-01 BMatP= 1.84D-01
 IDIUse=3 WtCom= 8.68D-01 WtEn= 1.32D-01
 Coeff-Com:  0.100D+01
 Coeff-En:   0.100D+01
 Coeff:      0.100D+01
 Gap=     0.029 Goal=   None    Shift=    0.000
 Gap=     0.028 Goal=   None    Shift=    0.000
 GapD=    0.028 DampG=0.250 DampE=0.500 DampFc=0.2500 IDamp=-1.
 Damping current iteration by 2.50D-01
 RMSDP=5.55D-03 MaxDP=2.68D-01              OVMax= 3.89D-01

 Cycle   2  Pass 1  IDiag  1:
 RMSU=  1.27D-03    CP:  9.76D-01
 E= -1136.08492858979     Delta-E=       -0.008994387794 Rises=F Damp=T
 DIIS: error= 9.17D-03 at cycle   2 NSaved=   2.
 NSaved= 2 IEnMin= 2 EnMin= -1136.08492858979     IErMin= 2 ErrMin= 9.17D-03
 ErrMax= 9.17D-03  0.00D+00 EMaxC= 1.00D-01 BMatC= 7.10D-02 BMatP= 1.84D-01
 IDIUse=3 WtCom= 9.08D-01 WtEn= 9.17D-02
 Coeff-Com: -0.127D+01 0.227D+01
 Coeff-En:   0.000D+00 0.100D+01
 Coeff:     -0.115D+01 0.215D+01
 Gap=     0.060 Goal=   None    Shift=    0.000
 Gap=     0.039 Goal=   None    Shift=    0.000
 RMSDP=4.11D-03 MaxDP=3.82D-01 DE=-8.99D-03 OVMax= 4.45D-01

 Cycle   3  Pass 1  IDiag  1:
 RMSU=  2.92D-03    CP:  8.90D-01  2.65D+00
 E= -1136.09219417996     Delta-E=       -0.007265590170 Rises=F Damp=F
 DIIS: error= 3.46D-03 at cycle   3 NSaved=   3.
 NSaved= 3 IEnMin= 3 EnMin= -1136.09219417996     IErMin= 3 ErrMin= 3.46D-03
 ErrMax= 3.46D-03  0.00D+00 EMaxC= 1.00D-01 BMatC= 7.30D-03 BMatP= 7.10D-02
 IDIUse=3 WtCom= 9.65D-01 WtEn= 3.46D-02
 Coeff-Com: -0.424D+00 0.736D+00 0.688D+00
 Coeff-En:   0.000D+00 0.876D-01 0.912D+00
 Coeff:     -0.409D+00 0.713D+00 0.696D+00
 Gap=     0.043 Goal=   None    Shift=    0.000
 Gap=     0.038 Goal=   None    Shift=    0.000
 RMSDP=2.71D-03 MaxDP=1.66D-01 DE=-7.27D-03 OVMax= 3.47D-01

 Cycle   4  Pass 1  IDiag  1:
 RMSU=  1.75D-03    CP:  8.92D-01  3.00D+00  3.79D-01
 E= -1136.08913493278     Delta-E=        0.003059247177 Rises=F Damp=F
 DIIS: error= 4.09D-03 at cycle   4 NSaved=   4.
 NSaved= 4 IEnMin= 3 EnMin= -1136.09219417996     IErMin= 3 ErrMin= 3.46D-03
 ErrMax= 4.09D-03  0.00D+00 EMaxC= 1.00D-01 BMatC= 9.44D-03 BMatP= 7.30D-03
 IDIUse=3 WtCom= 1.35D-01 WtEn= 8.65D-01
 Coeff-Com: -0.237D-01 0.415D-01 0.528D+00 0.454D+00
 Coeff-En:   0.000D+00 0.000D+00 0.542D+00 0.458D+00
 Coeff:     -0.321D-02 0.562D-02 0.540D+00 0.458D+00
 Gap=     0.042 Goal=   None    Shift=    0.000
 Gap=     0.034 Goal=   None    Shift=    0.000
 RMSDP=1.48D-03 MaxDP=8.06D-02 DE= 3.06D-03 OVMax= 2.09D-01

 Cycle   5  Pass 1  IDiag  1:
 RMSU=  4.92D-04    CP:  8.89D-01  3.00D+00  7.42D-01  4.83D-01
 E= -1136.10455015627     Delta-E=       -0.015415223486 Rises=F Damp=F
 DIIS: error= 2.82D-04 at cycle   5 NSaved=   5.
 NSaved= 5 IEnMin= 5 EnMin= -1136.10455015627     IErMin= 5 ErrMin= 2.82D-04
 ErrMax= 2.82D-04  0.00D+00 EMaxC= 1.00D-01 BMatC= 7.70D-05 BMatP= 7.30D-03
 IDIUse=3 WtCom= 9.97D-01 WtEn= 2.82D-03
 Coeff-Com: -0.358D-02 0.437D-02 0.830D-01 0.505D-01 0.866D+00
 Coeff-En:   0.000D+00 0.000D+00 0.000D+00 0.000D+00 0.100D+01
 Coeff:     -0.357D-02 0.436D-02 0.827D-01 0.503D-01 0.866D+00
 Gap=     0.040 Goal=   None    Shift=    0.000
 Gap=     0.034 Goal=   None    Shift=    0.000
 RMSDP=4.20D-04 MaxDP=2.83D-02 DE=-1.54D-02 OVMax= 2.34D-02

 Cycle   6  Pass 1  IDiag  1:
 RMSU=  3.79D-04    CP:  8.90D-01  3.00D+00  7.59D-01  5.77D-01  1.11D+00
 E= -1136.10462861207     Delta-E=       -0.000078455808 Rises=F Damp=F
 DIIS: error= 3.13D-04 at cycle   6 NSaved=   6.
 NSaved= 6 IEnMin= 6 EnMin= -1136.10462861207     IErMin= 5 ErrMin= 2.82D-04
 ErrMax= 3.13D-04  0.00D+00 EMaxC= 1.00D-01 BMatC= 6.33D-05 BMatP= 7.70D-05
 IDIUse=3 WtCom= 9.97D-01 WtEn= 2.82D-03
 Coeff-Com: -0.275D-02 0.315D-02-0.193D-01-0.386D-01 0.493D+00 0.564D+00
 Coeff-En:   0.000D+00 0.000D+00 0.000D+00 0.000D+00 0.759D-01 0.924D+00
 Coeff:     -0.274D-02 0.314D-02-0.193D-01-0.385D-01 0.492D+00 0.565D+00
 Gap=     0.040 Goal=   None    Shift=    0.000
 Gap=     0.035 Goal=   None    Shift=    0.000
 RMSDP=1.71D-04 MaxDP=8.32D-03 DE=-7.85D-05 OVMax= 1.14D-02

 Cycle   7  Pass 1  IDiag  1:
 RMSU=  1.57D-04    CP:  8.89D-01  3.00D+00  7.61D-01  5.60D-01  1.23D+00
                    CP:  9.65D-01
 E= -1136.10471891806     Delta-E=       -0.000090305984 Rises=F Damp=F
 DIIS: error= 8.72D-05 at cycle   7 NSaved=   7.
 NSaved= 7 IEnMin= 7 EnMin= -1136.10471891806     IErMin= 7 ErrMin= 8.72D-05
 ErrMax= 8.72D-05  0.00D+00 EMaxC= 1.00D-01 BMatC= 4.41D-06 BMatP= 6.33D-05
 IDIUse=1 WtCom= 1.00D+00 WtEn= 0.00D+00
 Coeff-Com: -0.915D-03 0.123D-02-0.135D-01-0.190D-01 0.340D-01 0.158D+00
 Coeff-Com:  0.840D+00
 Coeff:     -0.915D-03 0.123D-02-0.135D-01-0.190D-01 0.340D-01 0.158D+00
 Coeff:      0.840D+00
 Gap=     0.040 Goal=   None    Shift=    0.000
 Gap=     0.036 Goal=   None    Shift=    0.000
 RMSDP=9.80D-05 MaxDP=4.77D-03 DE=-9.03D-05 OVMax= 1.12D-02

 Cycle   8  Pass 1  IDiag  1:
 RMSU=  6.05D-05    CP:  8.90D-01  3.00D+00  7.65D-01  5.66D-01  1.28D+00
                    CP:  1.12D+00  1.24D+00
 E= -1136.10474283700     Delta-E=       -0.000023918941 Rises=F Damp=F
 DIIS: error= 4.67D-05 at cycle   8 NSaved=   8.
 NSaved= 8 IEnMin= 8 EnMin= -1136.10474283700     IErMin= 8 ErrMin= 4.67D-05
 ErrMax= 4.67D-05  0.00D+00 EMaxC= 1.00D-01 BMatC= 1.39D-06 BMatP= 4.41D-06
 IDIUse=1 WtCom= 1.00D+00 WtEn= 0.00D+00
 Coeff-Com:  0.119D-02-0.146D-02-0.126D-02 0.127D-02-0.761D-01-0.108D+00
 Coeff-Com: -0.410D-01 0.122D+01
 Coeff:      0.119D-02-0.146D-02-0.126D-02 0.127D-02-0.761D-01-0.108D+00
 Coeff:     -0.410D-01 0.122D+01
 Gap=     0.040 Goal=   None    Shift=    0.000
 Gap=     0.036 Goal=   None    Shift=    0.000
 RMSDP=9.57D-05 MaxDP=4.82D-03 DE=-2.39D-05 OVMax= 1.07D-02

 Cycle   9  Pass 1  IDiag  1:
 RMSU=  3.97D-05    CP:  8.90D-01  3.00D+00  7.64D-01  5.67D-01  1.31D+00
                    CP:  1.24D+00  1.62D+00  1.72D+00
 E= -1136.10475912064     Delta-E=       -0.000016283639 Rises=F Damp=F
 DIIS: error= 3.97D-05 at cycle   9 NSaved=   9.
 NSaved= 9 IEnMin= 9 EnMin= -1136.10475912064     IErMin= 9 ErrMin= 3.97D-05
 ErrMax= 3.97D-05  0.00D+00 EMaxC= 1.00D-01 BMatC= 7.56D-07 BMatP= 1.39D-06
 IDIUse=1 WtCom= 1.00D+00 WtEn= 0.00D+00
 Coeff-Com:  0.941D-03-0.120D-02 0.360D-02 0.585D-02-0.328D-01-0.954D-01
 Coeff-Com: -0.385D+00 0.583D+00 0.921D+00
 Coeff:      0.941D-03-0.120D-02 0.360D-02 0.585D-02-0.328D-01-0.954D-01
 Coeff:     -0.385D+00 0.583D+00 0.921D+00
 Gap=     0.040 Goal=   None    Shift=    0.000
 Gap=     0.036 Goal=   None    Shift=    0.000
 RMSDP=6.78D-05 MaxDP=3.19D-03 DE=-1.63D-05 OVMax= 7.86D-03

 Cycle  10  Pass 1  IDiag  1:
 RMSU=  2.10D-05    CP:  8.90D-01  3.00D+00  7.66D-01  5.68D-01  1.32D+00
                    CP:  1.31D+00  1.81D+00  2.47D+00  1.53D+00
 E= -1136.10476628478     Delta-E=       -0.000007164137 Rises=F Damp=F
 DIIS: error= 2.32D-05 at cycle  10 NSaved=  10.
 NSaved=10 IEnMin=10 EnMin= -1136.10476628478     IErMin=10 ErrMin= 2.32D-05
 ErrMax= 2.32D-05  0.00D+00 EMaxC= 1.00D-01 BMatC= 2.08D-07 BMatP= 7.56D-07
 IDIUse=1 WtCom= 1.00D+00 WtEn= 0.00D+00
 Coeff-Com: -0.389D-03 0.527D-03 0.231D-02 0.150D-03 0.373D-01 0.147D-01
 Coeff-Com: -0.165D+00-0.196D+00 0.198D+00 0.111D+01
 Coeff:     -0.389D-03 0.527D-03 0.231D-02 0.150D-03 0.373D-01 0.147D-01
 Coeff:     -0.165D+00-0.196D+00 0.198D+00 0.111D+01
 Gap=     0.040 Goal=   None    Shift=    0.000
 Gap=     0.036 Goal=   None    Shift=    0.000
 RMSDP=4.49D-05 MaxDP=2.28D-03 DE=-7.16D-06 OVMax= 5.17D-03

 Cycle  11  Pass 1  IDiag  1:
 RMSU=  9.97D-06    CP:  8.90D-01  3.00D+00  7.65D-01  5.65D-01  1.32D+00
                    CP:  1.33D+00  1.89D+00  3.00D+00  2.11D+00  1.53D+00
 E= -1136.10476876707     Delta-E=       -0.000002482291 Rises=F Damp=F
 DIIS: error= 1.05D-05 at cycle  11 NSaved=  11.
 NSaved=11 IEnMin=11 EnMin= -1136.10476876707     IErMin=11 ErrMin= 1.05D-05
 ErrMax= 1.05D-05  0.00D+00 EMaxC= 1.00D-01 BMatC= 6.51D-08 BMatP= 2.08D-07
 IDIUse=1 WtCom= 1.00D+00 WtEn= 0.00D+00
 Coeff-Com: -0.416D-03 0.546D-03 0.882D-06-0.232D-02 0.337D-01 0.399D-01
 Coeff-Com:  0.348D-01-0.262D+00-0.205D+00 0.436D+00 0.925D+00
 Coeff:     -0.416D-03 0.546D-03 0.882D-06-0.232D-02 0.337D-01 0.399D-01
 Coeff:      0.348D-01-0.262D+00-0.205D+00 0.436D+00 0.925D+00
 Gap=     0.040 Goal=   None    Shift=    0.000
 Gap=     0.036 Goal=   None    Shift=    0.000
 RMSDP=2.44D-05 MaxDP=1.19D-03 DE=-2.48D-06 OVMax= 2.68D-03

 Cycle  12  Pass 1  IDiag  1:
 RMSU=  1.64D-05    CP:  8.90D-01  3.00D+00  7.66D-01  5.64D-01  1.32D+00
                    CP:  1.33D+00  1.92D+00  3.00D+00  2.40D+00  2.07D+00
                    CP:  1.56D+00
 E= -1136.10476933006     Delta-E=       -0.000000562997 Rises=F Damp=F
 DIIS: error= 4.54D-06 at cycle  12 NSaved=  12.
 NSaved=12 IEnMin=12 EnMin= -1136.10476933006     IErMin=12 ErrMin= 4.54D-06
 ErrMax= 4.54D-06  0.00D+00 EMaxC= 1.00D-01 BMatC= 1.12D-08 BMatP= 6.51D-08
 IDIUse=1 WtCom= 1.00D+00 WtEn= 0.00D+00
 Coeff-Com: -0.434D-04 0.520D-04-0.567D-03-0.913D-03 0.525D-02 0.134D-01
 Coeff-Com:  0.430D-01-0.585D-01-0.106D+00-0.796D-01 0.317D+00 0.867D+00
 Coeff:     -0.434D-04 0.520D-04-0.567D-03-0.913D-03 0.525D-02 0.134D-01
 Coeff:      0.430D-01-0.585D-01-0.106D+00-0.796D-01 0.317D+00 0.867D+00
 Gap=     0.040 Goal=   None    Shift=    0.000
 Gap=     0.036 Goal=   None    Shift=    0.000
 RMSDP=8.63D-06 MaxDP=4.90D-04 DE=-5.63D-07 OVMax= 9.94D-04

 Cycle  13  Pass 1  IDiag  1:
 RMSU=  2.60D-06    CP:  8.90D-01  3.00D+00  7.66D-01  5.63D-01  1.32D+00
                    CP:  1.33D+00  1.93D+00  3.00D+00  2.51D+00  2.21D+00
                    CP:  1.89D+00  1.31D+00
 E= -1136.10476941749     Delta-E=       -0.000000087423 Rises=F Damp=F
 DIIS: error= 2.92D-06 at cycle  13 NSaved=  13.
 NSaved=13 IEnMin=13 EnMin= -1136.10476941749     IErMin=13 ErrMin= 2.92D-06
 ErrMax= 2.92D-06  0.00D+00 EMaxC= 1.00D-01 BMatC= 3.59D-09 BMatP= 1.12D-08
 IDIUse=1 WtCom= 1.00D+00 WtEn= 0.00D+00
 Coeff-Com:  0.406D-04-0.535D-04-0.440D-03 0.104D-03-0.455D-02-0.236D-02
 Coeff-Com:  0.964D-02 0.257D-01 0.380D-03-0.119D+00-0.410D-01 0.299D+00
 Coeff-Com:  0.833D+00
 Coeff:      0.406D-04-0.535D-04-0.440D-03 0.104D-03-0.455D-02-0.236D-02
 Coeff:      0.964D-02 0.257D-01 0.380D-03-0.119D+00-0.410D-01 0.299D+00
 Coeff:      0.833D+00
 Gap=     0.040 Goal=   None    Shift=    0.000
 Gap=     0.036 Goal=   None    Shift=    0.000
 RMSDP=3.71D-06 MaxDP=1.94D-04 DE=-8.74D-08 OVMax= 4.25D-04

 Cycle  14  Pass 1  IDiag  1:
 RMSU=  1.63D-06    CP:  8.90D-01  3.00D+00  7.66D-01  5.63D-01  1.32D+00
                    CP:  1.33D+00  1.94D+00  3.00D+00  2.54D+00  2.27D+00
                    CP:  2.03D+00  1.43D+00  1.34D+00
 E= -1136.10476943870     Delta-E=       -0.000000021213 Rises=F Damp=F
 DIIS: error= 2.00D-06 at cycle  14 NSaved=  14.
 NSaved=14 IEnMin=14 EnMin= -1136.10476943870     IErMin=14 ErrMin= 2.00D-06
 ErrMax= 2.00D-06  0.00D+00 EMaxC= 1.00D-01 BMatC= 1.39D-09 BMatP= 3.59D-09
 IDIUse=1 WtCom= 1.00D+00 WtEn= 0.00D+00
 Coeff-Com:  0.683D-05-0.721D-05-0.796D-04 0.356D-03-0.273D-02-0.506D-02
 Coeff-Com: -0.123D-01 0.282D-01 0.384D-01-0.198D-01-0.952D-01-0.208D+00
 Coeff-Com:  0.282D+00 0.994D+00
 Coeff:      0.683D-05-0.721D-05-0.796D-04 0.356D-03-0.273D-02-0.506D-02
 Coeff:     -0.123D-01 0.282D-01 0.384D-01-0.198D-01-0.952D-01-0.208D+00
 Coeff:      0.282D+00 0.994D+00
 Gap=     0.040 Goal=   None    Shift=    0.000
 Gap=     0.036 Goal=   None    Shift=    0.000
 RMSDP=2.24D-06 MaxDP=1.46D-04 DE=-2.12D-08 OVMax= 2.59D-04

 Cycle  15  Pass 1  IDiag  1:
 RMSU=  6.62D-07    CP:  8.90D-01  3.00D+00  7.65D-01  5.63D-01  1.32D+00
                    CP:  1.33D+00  1.94D+00  3.00D+00  2.55D+00  2.29D+00
                    CP:  2.10D+00  1.47D+00  1.86D+00  1.68D+00
 E= -1136.10476944866     Delta-E=       -0.000000009961 Rises=F Damp=F
 DIIS: error= 1.09D-06 at cycle  15 NSaved=  15.
 NSaved=15 IEnMin=15 EnMin= -1136.10476944866     IErMin=15 ErrMin= 1.09D-06
 ErrMax= 1.09D-06  0.00D+00 EMaxC= 1.00D-01 BMatC= 3.21D-10 BMatP= 1.39D-09
 IDIUse=1 WtCom= 1.00D+00 WtEn= 0.00D+00
 Coeff-Com: -0.302D-04 0.391D-04 0.173D-03-0.111D-03 0.294D-02 0.257D-02
 Coeff-Com: -0.143D-02-0.161D-01-0.927D-02 0.437D-01 0.544D-01-0.978D-01
 Coeff-Com: -0.356D+00-0.203D+00 0.158D+01
 Coeff:     -0.302D-04 0.391D-04 0.173D-03-0.111D-03 0.294D-02 0.257D-02
 Coeff:     -0.143D-02-0.161D-01-0.927D-02 0.437D-01 0.544D-01-0.978D-01
 Coeff:     -0.356D+00-0.203D+00 0.158D+01
 Gap=     0.040 Goal=   None    Shift=    0.000
 Gap=     0.036 Goal=   None    Shift=    0.000
 RMSDP=2.11D-06 MaxDP=1.31D-04 DE=-9.96D-09 OVMax= 3.10D-04

 Cycle  16  Pass 1  IDiag  1:
 RMSU=  3.58D-07    CP:  8.90D-01  3.00D+00  7.65D-01  5.63D-01  1.32D+00
                    CP:  1.33D+00  1.94D+00  3.00D+00  2.56D+00  2.30D+00
                    CP:  2.14D+00  1.51D+00  2.24D+00  2.39D+00  2.58D+00
 E= -1136.10476945362     Delta-E=       -0.000000004960 Rises=F Damp=F
 DIIS: error= 3.84D-07 at cycle  16 NSaved=  16.
 NSaved=16 IEnMin=16 EnMin= -1136.10476945362     IErMin=16 ErrMin= 3.84D-07
 ErrMax= 3.84D-07  0.00D+00 EMaxC= 1.00D-01 BMatC= 5.08D-11 BMatP= 3.21D-10
 IDIUse=1 WtCom= 1.00D+00 WtEn= 0.00D+00
 Coeff-Com:  0.526D-05-0.749D-05-0.276D-05-0.541D-04 0.458D-03 0.706D-03
 Coeff-Com:  0.111D-02-0.378D-02-0.363D-02-0.287D-02 0.114D-01 0.517D-01
 Coeff-Com: -0.876D-02-0.193D+00-0.168D+00 0.131D+01
 Coeff:      0.526D-05-0.749D-05-0.276D-05-0.541D-04 0.458D-03 0.706D-03
 Coeff:      0.111D-02-0.378D-02-0.363D-02-0.287D-02 0.114D-01 0.517D-01
 Coeff:     -0.876D-02-0.193D+00-0.168D+00 0.131D+01
 Gap=     0.040 Goal=   None    Shift=    0.000
 Gap=     0.036 Goal=   None    Shift=    0.000
 RMSDP=8.62D-07 MaxDP=3.58D-05 DE=-4.96D-09 OVMax= 1.44D-04

 Cycle  17  Pass 1  IDiag  1:
 RMSU=  2.87D-07    CP:  8.90D-01  3.00D+00  7.65D-01  5.63D-01  1.32D+00
                    CP:  1.33D+00  1.94D+00  3.00D+00  2.57D+00  2.30D+00
                    CP:  2.15D+00  1.53D+00  2.35D+00  2.64D+00  3.00D+00
                    CP:  1.77D+00
 E= -1136.10476945441     Delta-E=       -0.000000000785 Rises=F Damp=F
 DIIS: error= 1.78D-07 at cycle  17 NSaved=  17.
 NSaved=17 IEnMin=17 EnMin= -1136.10476945441     IErMin=17 ErrMin= 1.78D-07
 ErrMax= 1.78D-07  0.00D+00 EMaxC= 1.00D-01 BMatC= 1.27D-11 BMatP= 5.08D-11
 IDIUse=1 WtCom= 1.00D+00 WtEn= 0.00D+00
 Coeff-Com: -0.134D-05 0.181D-05-0.271D-04-0.175D-04 0.281D-04 0.137D-03
 Coeff-Com:  0.554D-03-0.770D-03-0.742D-03-0.314D-02 0.387D-02 0.142D-01
 Coeff-Com:  0.350D-01-0.208D-01-0.254D+00 0.277D+00 0.948D+00
 Coeff:     -0.134D-05 0.181D-05-0.271D-04-0.175D-04 0.281D-04 0.137D-03
 Coeff:      0.554D-03-0.770D-03-0.742D-03-0.314D-02 0.387D-02 0.142D-01
 Coeff:      0.350D-01-0.208D-01-0.254D+00 0.277D+00 0.948D+00
 Gap=     0.040 Goal=   None    Shift=    0.000
 Gap=     0.036 Goal=   None    Shift=    0.000
 RMSDP=2.94D-07 MaxDP=1.21D-05 DE=-7.85D-10 OVMax= 4.56D-05

 Cycle  18  Pass 1  IDiag  1:
 RMSU=  8.80D-08    CP:  8.90D-01  3.00D+00  7.65D-01  5.63D-01  1.32D+00
                    CP:  1.33D+00  1.94D+00  3.00D+00  2.57D+00  2.30D+00
                    CP:  2.15D+00  1.53D+00  2.37D+00  2.71D+00  3.00D+00
                    CP:  2.13D+00  1.65D+00
 E= -1136.10476945452     Delta-E=       -0.000000000115 Rises=F Damp=F
 DIIS: error= 8.13D-08 at cycle  18 NSaved=  18.
 NSaved=18 IEnMin=18 EnMin= -1136.10476945452     IErMin=18 ErrMin= 8.13D-08
 ErrMax= 8.13D-08  0.00D+00 EMaxC= 1.00D-01 BMatC= 1.98D-12 BMatP= 1.27D-11
 IDIUse=1 WtCom= 1.00D+00 WtEn= 0.00D+00
 Coeff-Com: -0.156D-07 0.977D-07-0.100D-04 0.714D-05-0.161D-03-0.119D-03
 Coeff-Com: -0.910D-04 0.933D-03 0.700D-03-0.163D-02-0.188D-02-0.439D-02
 Coeff-Com:  0.160D-01 0.281D-01-0.374D-01-0.177D+00 0.152D+00 0.103D+01
 Coeff:     -0.156D-07 0.977D-07-0.100D-04 0.714D-05-0.161D-03-0.119D-03
 Coeff:     -0.910D-04 0.933D-03 0.700D-03-0.163D-02-0.188D-02-0.439D-02
 Coeff:      0.160D-01 0.281D-01-0.374D-01-0.177D+00 0.152D+00 0.103D+01
 Gap=     0.040 Goal=   None    Shift=    0.000
 Gap=     0.036 Goal=   None    Shift=    0.000
 RMSDP=1.41D-07 MaxDP=5.72D-06 DE=-1.15D-10 OVMax= 2.01D-05

 Cycle  19  Pass 1  IDiag  1:
 RMSU=  4.68D-08    CP:  8.90D-01  3.00D+00  7.65D-01  5.63D-01  1.32D+00
                    CP:  1.33D+00  1.94D+00  3.00D+00  2.57D+00  2.30D+00
                    CP:  2.15D+00  1.53D+00  2.38D+00  2.72D+00  3.00D+00
                    CP:  2.33D+00  1.92D+00  1.28D+00
 E= -1136.10476945453     Delta-E=       -0.000000000009 Rises=F Damp=F
 DIIS: error= 3.17D-08 at cycle  19 NSaved=  19.
 NSaved=19 IEnMin=19 EnMin= -1136.10476945453     IErMin=19 ErrMin= 3.17D-08
 ErrMax= 3.17D-08  0.00D+00 EMaxC= 1.00D-01 BMatC= 3.21D-13 BMatP= 1.98D-12
 IDIUse=1 WtCom= 1.00D+00 WtEn= 0.00D+00
 Coeff-Com: -0.189D-06 0.236D-06 0.423D-05 0.291D-05-0.247D-05-0.165D-04
 Coeff-Com: -0.108D-04-0.267D-04 0.134D-03 0.656D-03-0.710D-03-0.232D-02
 Coeff-Com: -0.835D-02 0.550D-02 0.535D-01-0.742D-01-0.172D+00 0.464D-01
 Coeff-Com:  0.115D+01
 Coeff:     -0.189D-06 0.236D-06 0.423D-05 0.291D-05-0.247D-05-0.165D-04
 Coeff:     -0.108D-04-0.267D-04 0.134D-03 0.656D-03-0.710D-03-0.232D-02
 Coeff:     -0.835D-02 0.550D-02 0.535D-01-0.742D-01-0.172D+00 0.464D-01
 Coeff:      0.115D+01
 Gap=     0.040 Goal=   None    Shift=    0.000
 Gap=     0.036 Goal=   None    Shift=    0.000
 RMSDP=6.23D-08 MaxDP=2.79D-06 DE=-8.64D-12 OVMax= 6.91D-06

 Cycle  20  Pass 1  IDiag  1:
 RMSU=  1.34D-08    CP:  8.90D-01  3.00D+00  7.65D-01  5.63D-01  1.32D+00
                    CP:  1.33D+00  1.94D+00  3.00D+00  2.57D+00  2.30D+00
                    CP:  2.15D+00  1.54D+00  2.39D+00  2.73D+00  3.00D+00
                    CP:  2.40D+00  2.02D+00  1.34D+00  1.75D+00
 E= -1136.10476945453     Delta-E=        0.000000000002 Rises=F Damp=F
 DIIS: error= 9.06D-09 at cycle  20 NSaved=  20.
 NSaved=20 IEnMin=19 EnMin= -1136.10476945453     IErMin=20 ErrMin= 9.06D-09
 ErrMax= 9.06D-09  0.00D+00 EMaxC= 1.00D-01 BMatC= 3.60D-14 BMatP= 3.21D-13
 IDIUse=1 WtCom= 1.00D+00 WtEn= 0.00D+00
 Coeff-Com: -0.315D-06 0.419D-06 0.119D-05-0.106D-05 0.256D-04 0.232D-04
 Coeff-Com:  0.295D-04-0.146D-03-0.116D-03 0.182D-03 0.501D-03 0.395D-03
 Coeff-Com: -0.132D-02-0.345D-02 0.138D-02 0.215D-01 0.237D-02-0.134D+00
 Coeff-Com: -0.563D-01 0.117D+01
 Coeff:     -0.315D-06 0.419D-06 0.119D-05-0.106D-05 0.256D-04 0.232D-04
 Coeff:      0.295D-04-0.146D-03-0.116D-03 0.182D-03 0.501D-03 0.395D-03
 Coeff:     -0.132D-02-0.345D-02 0.138D-02 0.215D-01 0.237D-02-0.134D+00
 Coeff:     -0.563D-01 0.117D+01
 Gap=     0.040 Goal=   None    Shift=    0.000
 Gap=     0.036 Goal=   None    Shift=    0.000
 RMSDP=1.82D-08 MaxDP=9.89D-07 DE= 2.05D-12 OVMax= 1.44D-06

 Cycle  21  Pass 1  IDiag  1:
 Restarting incremental Fock formation.
 E= -1136.10476945454     Delta-E=       -0.000000000013 Rises=F Damp=F
 DIIS: error= 3.27D-09 at cycle  21 NSaved=  20.
 NSaved=20 IEnMin=20 EnMin= -1136.10476945454     IErMin=20 ErrMin= 3.27D-09
 ErrMax= 3.27D-09  0.00D+00 EMaxC= 1.00D-01 BMatC= 6.49D-15 BMatP= 3.60D-14
 IDIUse=1 WtCom= 1.00D+00 WtEn= 0.00D+00
 Coeff-Com:  0.119D-07-0.487D-06-0.403D-06 0.129D-05 0.255D-06-0.868D-05
 Coeff-Com:  0.701D-05-0.242D-05-0.560D-04 0.110D-03 0.481D-04 0.149D-02
 Coeff-Com: -0.201D-03-0.836D-02 0.986D-02 0.297D-01-0.409D-02-0.205D+00
 Coeff-Com:  0.150D+00 0.103D+01
 Coeff:      0.119D-07-0.487D-06-0.403D-06 0.129D-05 0.255D-06-0.868D-05
 Coeff:      0.701D-05-0.242D-05-0.560D-04 0.110D-03 0.481D-04 0.149D-02
 Coeff:     -0.201D-03-0.836D-02 0.986D-02 0.297D-01-0.409D-02-0.205D+00
 Coeff:      0.150D+00 0.103D+01
 Gap=     0.040 Goal=   None    Shift=    0.000
 Gap=     0.036 Goal=   None    Shift=    0.000
 RMSDP=6.56D-09 MaxDP=3.09D-07 DE=-1.27D-11 OVMax= 5.70D-07

 SCF Done:  E(UB3LYP) =  -1136.10476945     A.U. after   21 cycles
            NFock= 21  Conv=0.66D-08     -V/T= 2.0028
 <Sx>= 0.0000 <Sy>= 0.0000 <Sz>= 0.5000 <S**2>= 0.8014 S= 0.5254
 <L.S>= 0.000000000000E+00
 KE= 1.132938360591D+03 PE=-3.279731562088D+03 EE= 7.353956336137D+02
 Annihilation of the first spin contaminant:
 S**2 before annihilation     0.8014,   after     0.7512
 Leave Link  502 at Tue Nov 21 11:50:25 2023, MaxMem=   104857600 cpu:             684.7 elap:             550.7
 (Enter /home/sekinelabo/g16/l601.exe)
 Copying SCF densities to generalized density rwf, IOpCl= 1 IROHF=0.

 **********************************************************************

            Population analysis using the SCF Density.

 **********************************************************************

 Orbital symmetries:
 Alpha Orbitals:
       Occupied  (A) (A) (A) (A) (A) (A) (A) (A) (A) (A) (A) (A)
                 (A) (A) (A) (A) (A) (A) (A) (A) (A) (A) (A) (A)
                 (A) (A) (A) (A) (A) (A) (A) (A) (A) (A) (A) (A)
                 (A) (A) (A)
       Virtual   (A) (A) (A) (A) (A) (A) (A) (A) (A) (A) (A) (A)
                 (A) (A) (A) (A) (A) (A) (A) (A) (A) (A) (A) (A)
                 (A) (A) (A) (A) (A) (A) (A) (A) (A) (A) (A) (A)
                 (A) (A) (A) (A) (A) (A) (A) (A) (A) (A) (A) (A)
                 (A) (A) (A) (A) (A) (A) (A) (A) (A) (A) (A) (A)
                 (A) (A) (A) (A) (A) (A) (A) (A) (A) (A) (A) (A)
                 (A) (A) (A) (A) (A) (A) (A) (A) (A) (A) (A) (A)
                 (A) (A) (A) (A) (A) (A) (A) (A) (A) (A) (A) (A)
                 (A) (A) (A) (A) (A) (A) (A) (A) (A) (A) (A) (A)
                 (A) (A) (A) (A) (A) (A) (A) (A) (A) (A) (A) (A)
                 (A) (A) (A) (A) (A) (A) (A) (A) (A) (A) (A) (A)
                 (A) (A) (A) (A) (A) (A) (A) (A) (A) (A) (A) (A)
                 (A) (A) (A) (A) (A) (A) (A) (A) (A) (A) (A) (A)
                 (A) (A) (A) (A) (A) (A) (A) (A) (A) (A) (A) (A)
                 (A) (A) (A)
 Beta  Orbitals:
       Occupied  (A) (A) (A) (A) (A) (A) (A) (A) (A) (A) (A) (A)
                 (A) (A) (A) (A) (A) (A) (A) (A) (A) (A) (A) (A)
                 (A) (A) (A) (A) (A) (A) (A) (A) (A) (A) (A) (A)
                 (A) (A)
       Virtual   (A) (A) (A) (A) (A) (A) (A) (A) (A) (A) (A) (A)
                 (A) (A) (A) (A) (A) (A) (A) (A) (A) (A) (A) (A)
                 (A) (A) (A) (A) (A) (A) (A) (A) (A) (A) (A) (A)
                 (A) (A) (A) (A) (A) (A) (A) (A) (A) (A) (A) (A)
                 (A) (A) (A) (A) (A) (A) (A) (A) (A) (A) (A) (A)
                 (A) (A) (A) (A) (A) (A) (A) (A) (A) (A) (A) (A)
                 (A) (A) (A) (A) (A) (A) (A) (A) (A) (A) (A) (A)
                 (A) (A) (A) (A) (A) (A) (A) (A) (A) (A) (A) (A)
                 (A) (A) (A) (A) (A) (A) (A) (A) (A) (A) (A) (A)
                 (A) (A) (A) (A) (A) (A) (A) (A) (A) (A) (A) (A)
                 (A) (A) (A) (A) (A) (A) (A) (A) (A) (A) (A) (A)
                 (A) (A) (A) (A) (A) (A) (A) (A) (A) (A) (A) (A)
                 (A) (A) (A) (A) (A) (A) (A) (A) (A) (A) (A) (A)
                 (A) (A) (A) (A) (A) (A) (A) (A) (A) (A) (A) (A)
                 (A) (A) (A) (A)
 The electronic state is 2-A.
 Alpha  occ. eigenvalues --  -38.45181 -38.45121 -38.44470 -38.44103 -38.44055
 Alpha  occ. eigenvalues --  -38.43182 -38.43177  -2.21004  -2.20987  -2.20271
 Alpha  occ. eigenvalues --   -2.19945  -2.19933  -2.19023  -2.18995  -1.14794
 Alpha  occ. eigenvalues --   -1.14698  -1.14651  -1.14630  -1.14616  -1.14525
 Alpha  occ. eigenvalues --   -1.13924  -1.13909  -1.13896  -1.13643  -1.13614
 Alpha  occ. eigenvalues --   -1.13593  -1.13576  -1.13562  -1.13541  -1.12706
 Alpha  occ. eigenvalues --   -1.12692  -1.12684  -1.12676  -1.12654  -1.12631
 Alpha  occ. eigenvalues --   -0.16228  -0.14975  -0.11576  -0.10950
 Alpha virt. eigenvalues --   -0.06904  -0.05193  -0.04451  -0.03576  -0.03151
 Alpha virt. eigenvalues --   -0.02600  -0.02142  -0.01552  -0.01027  -0.00752
 Alpha virt. eigenvalues --   -0.00019   0.00050   0.00271   0.00440   0.00538
 Alpha virt. eigenvalues --    0.00696   0.00742   0.00957   0.00983   0.01177
 Alpha virt. eigenvalues --    0.01320   0.01563   0.01587   0.01750   0.01808
 Alpha virt. eigenvalues --    0.01900   0.02075   0.02228   0.02274   0.02406
 Alpha virt. eigenvalues --    0.02551   0.02608   0.02698   0.02742   0.02854
 Alpha virt. eigenvalues --    0.02892   0.03099   0.03175   0.03261   0.03489
 Alpha virt. eigenvalues --    0.03559   0.03774   0.03885   0.04186   0.04273
 Alpha virt. eigenvalues --    0.04565   0.04840   0.05018   0.05197   0.05719
 Alpha virt. eigenvalues --    0.05989   0.06186   0.06459   0.06942   0.07346
 Alpha virt. eigenvalues --    0.07545   0.07704   0.07868   0.08081   0.08488
 Alpha virt. eigenvalues --    0.08714   0.09086   0.09223   0.09353   0.09812
 Alpha virt. eigenvalues --    0.09960   0.10510   0.10841   0.11268   0.11670
 Alpha virt. eigenvalues --    0.12075   0.12230   0.13129   0.13678   0.14205
 Alpha virt. eigenvalues --    0.14610   0.14926   0.15534   0.16086   0.17065
 Alpha virt. eigenvalues --    0.26736   0.27737   0.28396   0.28972   0.29396
 Alpha virt. eigenvalues --    0.29649   0.30662   0.31342   0.31656   0.32091
 Alpha virt. eigenvalues --    0.32909   0.33715   0.35006   0.35159   0.35496
 Alpha virt. eigenvalues --    0.35587   0.36496   0.36772   0.37845   0.38883
 Alpha virt. eigenvalues --    0.40983   0.41860   0.42666   0.42936   0.43320
 Alpha virt. eigenvalues --    0.43657   0.44125   0.44319   0.44751   0.44873
 Alpha virt. eigenvalues --    0.45025   0.45175   0.45653   0.46088   0.46429
 Alpha virt. eigenvalues --    0.46584   0.47517   0.47902   0.48155   0.48266
 Alpha virt. eigenvalues --    0.48898   0.49176   0.49731   0.50993   0.51228
 Alpha virt. eigenvalues --    0.51399   0.52480   0.53210   0.55537   0.56572
 Alpha virt. eigenvalues --    0.59933   0.63204   0.67917   0.68876   0.73784
 Alpha virt. eigenvalues --    0.74095   2.04471   2.06755   2.09502   2.12141
 Alpha virt. eigenvalues --    2.14887   2.18017   2.21582   4.40906   4.41687
 Alpha virt. eigenvalues --    4.42436   4.42850   4.43183   4.43645   4.44457
 Alpha virt. eigenvalues --    4.44730   4.44915   4.45442   4.46545   4.46743
 Alpha virt. eigenvalues --    4.47139   4.48077   4.49089   4.50853   4.58420
 Alpha virt. eigenvalues --    4.59730   4.64761   4.65396   4.66956  96.24280
 Alpha virt. eigenvalues --   96.27039  96.30408  96.34020  96.37575  96.41702
 Alpha virt. eigenvalues --   96.45881
  Beta  occ. eigenvalues --  -38.45143 -38.45124 -38.44391 -38.44063 -38.43984
  Beta  occ. eigenvalues --  -38.43192 -38.43187  -2.21003  -2.20926  -2.20123
  Beta  occ. eigenvalues --   -2.19867  -2.19802  -2.19047  -2.19019  -1.14768
  Beta  occ. eigenvalues --   -1.14692  -1.14643  -1.14586  -1.14581  -1.14500
  Beta  occ. eigenvalues --   -1.13823  -1.13814  -1.13792  -1.13592  -1.13536
  Beta  occ. eigenvalues --   -1.13530  -1.13497  -1.13490  -1.13472  -1.12714
  Beta  occ. eigenvalues --   -1.12698  -1.12697  -1.12675  -1.12673  -1.12633
  Beta  occ. eigenvalues --   -0.15767  -0.14488  -0.11258
  Beta virt. eigenvalues --   -0.07619  -0.06351  -0.04857  -0.04060  -0.03429
  Beta virt. eigenvalues --   -0.02612  -0.02440  -0.01737  -0.01386  -0.00852
  Beta virt. eigenvalues --   -0.00448   0.00054   0.00216   0.00382   0.00594
  Beta virt. eigenvalues --    0.00657   0.00738   0.00812   0.01029   0.01059
  Beta virt. eigenvalues --    0.01300   0.01452   0.01641   0.01652   0.01772
  Beta virt. eigenvalues --    0.01899   0.02016   0.02135   0.02271   0.02369
  Beta virt. eigenvalues --    0.02488   0.02609   0.02708   0.02742   0.02857
  Beta virt. eigenvalues --    0.02923   0.02947   0.03185   0.03252   0.03350
  Beta virt. eigenvalues --    0.03526   0.03655   0.03826   0.03916   0.04228
  Beta virt. eigenvalues --    0.04363   0.04693   0.04890   0.05080   0.05312
  Beta virt. eigenvalues --    0.05768   0.06043   0.06228   0.06559   0.07033
  Beta virt. eigenvalues --    0.07443   0.07626   0.07814   0.07891   0.08175
  Beta virt. eigenvalues --    0.08760   0.08974   0.09192   0.09407   0.09563
  Beta virt. eigenvalues --    0.09947   0.10135   0.10726   0.11034   0.11522
  Beta virt. eigenvalues --    0.11857   0.12226   0.12352   0.13220   0.13825
  Beta virt. eigenvalues --    0.14361   0.14807   0.15103   0.15729   0.16222
  Beta virt. eigenvalues --    0.17208   0.27041   0.27985   0.28654   0.29256
  Beta virt. eigenvalues --    0.29709   0.29971   0.30953   0.31556   0.31852
  Beta virt. eigenvalues --    0.32397   0.33029   0.34027   0.35416   0.35483
  Beta virt. eigenvalues --    0.35920   0.35948   0.37079   0.37206   0.38330
  Beta virt. eigenvalues --    0.38934   0.41183   0.42079   0.42855   0.43040
  Beta virt. eigenvalues --    0.43377   0.43833   0.44097   0.44544   0.44823
  Beta virt. eigenvalues --    0.44918   0.45148   0.45322   0.45784   0.46227
  Beta virt. eigenvalues --    0.46599   0.46746   0.47638   0.48039   0.48269
  Beta virt. eigenvalues --    0.48414   0.49051   0.49298   0.49897   0.51184
  Beta virt. eigenvalues --    0.51434   0.51580   0.52583   0.53425   0.55609
  Beta virt. eigenvalues --    0.56758   0.60082   0.63405   0.68023   0.69036
  Beta virt. eigenvalues --    0.73933   0.74181   2.04590   2.06942   2.09666
  Beta virt. eigenvalues --    2.12347   2.14899   2.18074   2.21683   4.40938
  Beta virt. eigenvalues --    4.41756   4.42477   4.42899   4.43217   4.43701
  Beta virt. eigenvalues --    4.44503   4.44794   4.44995   4.45508   4.46564
  Beta virt. eigenvalues --    4.46789   4.47145   4.48147   4.49156   4.50852
  Beta virt. eigenvalues --    4.58460   4.59772   4.64795   4.65426   4.67018
  Beta virt. eigenvalues --   96.24320  96.27100  96.30462  96.34087  96.37583
  Beta virt. eigenvalues --   96.41721  96.45916
          Condensed to atoms (all electrons):
               1          2          3          4          5          6
     1  Na  11.097748  -0.003202   0.116527  -0.271123  -0.231348   0.070997
     2  Na  -0.003202  10.723518   0.003468   0.126406   0.291027  -0.101682
     3  Na   0.116527   0.003468  10.961455   0.028760  -0.477649   0.100384
     4  Na  -0.271123   0.126406   0.028760  10.858945   0.371138  -0.117722
     5  Na  -0.231348   0.291027  -0.477649   0.371138  12.764924  -0.533363
     6  Na   0.070997  -0.101682   0.100384  -0.117722  -0.533363  10.746304
     7  Na  -0.014700   0.013783  -0.004290  -0.039261   0.137007   0.136002
               7
     1  Na  -0.014700
     2  Na   0.013783
     3  Na  -0.004290
     4  Na  -0.039261
     5  Na   0.137007
     6  Na   0.136002
     7  Na  10.644785
          Atomic-Atomic Spin Densities.
               1          2          3          4          5          6
     1  Na   0.543612  -0.030581  -0.106788  -0.039345   0.032449  -0.004143
     2  Na  -0.030581  -0.104567   0.007518   0.008416   0.008319   0.003847
     3  Na  -0.106788   0.007518   0.446885   0.105369  -0.136993   0.022127
     4  Na  -0.039345   0.008416   0.105369  -0.077085   0.009908  -0.032011
     5  Na   0.032449   0.008319  -0.136993   0.009908   0.519525  -0.153575
     6  Na  -0.004143   0.003847   0.022127  -0.032011  -0.153575   0.059614
     7  Na  -0.006702  -0.001142   0.000729  -0.006737  -0.029701   0.053835
               7
     1  Na  -0.006702
     2  Na  -0.001142
     3  Na   0.000729
     4  Na  -0.006737
     5  Na  -0.029701
     6  Na   0.053835
     7  Na   0.202415
 Mulliken charges and spin densities:
               1          2
     1  Na   0.235101   0.388503
     2  Na  -0.053317  -0.108188
     3  Na   0.271344   0.338847
     4  Na   0.042856  -0.031485
     5  Na  -1.321737   0.249932
     6  Na   0.699079  -0.050306
     7  Na   0.126675   0.212697
 Sum of Mulliken charges =  -0.00000   1.00000
 Mulliken charges and spin densities with hydrogens summed into heavy atoms:
               1          2
     1  Na   0.235101   0.388503
     2  Na  -0.053317  -0.108188
     3  Na   0.271344   0.338847
     4  Na   0.042856  -0.031485
     5  Na  -1.321737   0.249932
     6  Na   0.699079  -0.050306
     7  Na   0.126675   0.212697
 Electronic spatial extent (au):  <R**2>=           4659.3340
 Charge=             -0.0000 electrons
 Dipole moment (field-independent basis, Debye):
    X=             -2.5392    Y=              0.2123    Z=              0.1364  Tot=              2.5517
 Quadrupole moment (field-independent basis, Debye-Ang):
   XX=            -61.1274   YY=            -73.2393   ZZ=            -64.0910
   XY=             -2.0563   XZ=              4.1069   YZ=             -1.5256
 Traceless Quadrupole moment (field-independent basis, Debye-Ang):
   XX=              5.0251   YY=             -7.0868   ZZ=              2.0616
   XY=             -2.0563   XZ=              4.1069   YZ=             -1.5256
 Octapole moment (field-independent basis, Debye-Ang**2):
  XXX=            -83.0598  YYY=              2.2350  ZZZ=             11.5027  XYY=             -5.0054
  XXY=            -16.1272  XXZ=            -23.4964  XZZ=            -22.1007  YZZ=             -3.9134
  YYZ=             -5.6926  XYZ=             -5.3014
 Hexadecapole moment (field-independent basis, Debye-Ang**3):
 XXXX=          -5341.0244 YYYY=          -1252.6130 ZZZZ=           -571.5551 XXXY=            -25.0362
 XXXZ=            376.7676 YYYX=            -18.6436 YYYZ=            -14.7188 ZZZX=            -32.5197
 ZZZY=              2.1779 XXYY=          -1286.6162 XXZZ=          -1026.1856 YYZZ=           -288.7695
 XXYZ=            -17.1697 YYXZ=              0.3705 ZZXY=            -15.2531
 N-N= 2.752927984283D+02 E-N=-3.279731561622D+03  KE= 1.132938360591D+03
                          Isotropic Fermi Contact Couplings
        Atom                 a.u.       MegaHertz       Gauss      10(-4) cm-1
     1  Na(23)             0.33950     401.63739     143.31421     133.97181
     2  Na(23)            -0.09496    -112.34315     -40.08683     -37.47364
     3  Na(23)             0.31581     373.61418     133.31483     124.62427
     4  Na(23)            -0.09167    -108.44917     -38.69736     -36.17475
     5  Na(23)             0.18763     221.96964      79.20429      74.04110
     6  Na(23)            -0.05306     -62.77059     -22.39811     -20.93802
     7  Na(23)             0.16636     196.80931      70.22646      65.64852
 --------------------------------------------------------
       Center         ----  Spin Dipole Couplings  ----
                      3XX-RR        3YY-RR        3ZZ-RR
 --------------------------------------------------------
     1   Atom        0.003793     -0.002193     -0.001601
     2   Atom       -0.016699      0.031759     -0.015061
     3   Atom       -0.003374      0.001153      0.002221
     4   Atom        0.011203     -0.002657     -0.008546
     5   Atom       -0.001926      0.001306      0.000619
     6   Atom        0.030326     -0.014948     -0.015378
     7   Atom       -0.003328      0.000654      0.002674
 --------------------------------------------------------
                        XY            XZ            YZ
 --------------------------------------------------------
     1   Atom        0.003588     -0.002001      0.002462
     2   Atom       -0.005964      0.002945     -0.014587
     3   Atom       -0.005922     -0.005929      0.001644
     4   Atom       -0.020181      0.015060     -0.009388
     5   Atom        0.011845      0.007977     -0.003334
     6   Atom        0.006191     -0.000123      0.000354
     7   Atom       -0.000535     -0.004287     -0.000957
 --------------------------------------------------------


 ---------------------------------------------------------------------------------
              Anisotropic Spin Dipole Couplings in Principal Axis System
 ---------------------------------------------------------------------------------

       Atom             a.u.   MegaHertz   Gauss  10(-4) cm-1        Axes

              Baa    -0.0060    -0.852    -0.304    -0.284 -0.3814  0.7243 -0.5743
     1 Na(23) Bbb     0.0005     0.066     0.023     0.022 -0.1309  0.5727  0.8092
              Bcc     0.0056     0.786     0.281     0.262  0.9151  0.3838 -0.1236
 
              Baa    -0.0198    -2.801    -0.999    -0.934 -0.4490  0.1947  0.8721
     2 Na(23) Bbb    -0.0169    -2.387    -0.852    -0.796  0.8852  0.2297  0.4044
              Bcc     0.0367     5.187     1.851     1.730 -0.1216  0.9536 -0.2755
 
              Baa    -0.0091    -1.279    -0.456    -0.427  0.8272  0.4196  0.3737
     3 Na(23) Bbb     0.0000     0.004     0.002     0.001 -0.0547  0.7220 -0.6897
              Bcc     0.0090     1.275     0.455     0.425 -0.5593  0.5501  0.6202
 
              Baa    -0.0177    -2.500    -0.892    -0.834  0.6560  0.5735 -0.4907
     4 Na(23) Bbb    -0.0154    -2.179    -0.778    -0.727  0.0345  0.6266  0.7786
              Bcc     0.0331     4.680     1.670     1.561  0.7540 -0.5277  0.3912
 
              Baa    -0.0163    -2.302    -0.822    -0.768  0.7036 -0.5569 -0.4414
     5 Na(23) Bbb     0.0038     0.542     0.193     0.181  0.1305 -0.5093  0.8506
              Bcc     0.0125     1.760     0.628     0.587  0.6985  0.6561  0.2857
 
              Baa    -0.0160    -2.259    -0.806    -0.754 -0.1153  0.8525 -0.5099
     6 Na(23) Bbb    -0.0152    -2.141    -0.764    -0.714 -0.0665  0.5056  0.8602
              Bcc     0.0312     4.400     1.570     1.468  0.9911  0.1331 -0.0016
 
              Baa    -0.0057    -0.804    -0.287    -0.268  0.8740  0.1436  0.4642
     7 Na(23) Bbb     0.0007     0.099     0.035     0.033 -0.1919  0.9797  0.0581
              Bcc     0.0050     0.705     0.251     0.235 -0.4464 -0.1399  0.8838
 

 ---------------------------------------------------------------------------------

 No NMR shielding tensors so no spin-rotation constants.
 Leave Link  601 at Tue Nov 21 11:50:31 2023, MaxMem=   104857600 cpu:              19.9 elap:               6.1
 (Enter /home/sekinelabo/g16/l701.exe)
 ... and contract with generalized density number  0.
 Compute integral first derivatives.
 Leave Link  701 at Tue Nov 21 11:50:34 2023, MaxMem=   104857600 cpu:              10.3 elap:               2.7
 (Enter /home/sekinelabo/g16/l702.exe)
 L702 exits ... SP integral derivatives will be done elsewhere.
 Leave Link  702 at Tue Nov 21 11:50:34 2023, MaxMem=   104857600 cpu:               0.8 elap:               0.2
 (Enter /home/sekinelabo/g16/l703.exe)
 Integral derivatives from FoFJK, PRISM(SPDF).
 Compute integral first derivatives, UseDBF=F ICtDFT=           0.
 Calling FoFJK, ICntrl=      2127 FMM=F ISym2X=0 I1Cent= 0 IOpClX= 1 NMat=1 NMatS=1 NMatT=0.
 FoFJK:  IHMeth= 1 ICntrl=    2127 DoSepK=F KAlg= 0 I1Cent=           0 FoldK=F
 IRaf=         0 NMat=       1 IRICut=       1 DoRegI=T DoRafI=F ISym2E= 0 IDoP0=0 IntGTp=1.
 FoFCou: FMM=F IPFlag=           0 FMFlag=      100000 FMFlg1=         800
         NFxFlg=           0 DoJE=F BraDBF=F KetDBF=F FulRan=T
         wScrn=  0.000000 ICntrl=      2127 IOpCl=  1 I1Cent=           0 NGrid=           0
         NMat0=    1 NMatS0=      1 NMatT0=    0 NMatD0=    1 NMtDS0=    0 NMtDT0=    0
 Symmetry not used in FoFCou.
 Leave Link  703 at Tue Nov 21 11:50:39 2023, MaxMem=   104857600 cpu:              34.1 elap:               5.0
 (Enter /home/sekinelabo/g16/l716.exe)
 Dipole        =-9.98995164D-01 8.35070562D-02 5.36767012D-02
 ***** Axes restored to original set *****
 -------------------------------------------------------------------
 Center     Atomic                   Forces (Hartrees/Bohr)
 Number     Number              X              Y              Z
 -------------------------------------------------------------------
      1       11          -0.001464804    0.001151400   -0.000495680
      2       11           0.003578803   -0.002659060   -0.000406635
      3       11          -0.000182519    0.000960740   -0.002118214
      4       11          -0.004282454   -0.000995860    0.002416993
      5       11           0.006244294    0.001925458    0.004183091
      6       11          -0.002276119   -0.000148779   -0.005635466
      7       11          -0.001617202   -0.000233898    0.002055913
 -------------------------------------------------------------------
 Cartesian Forces:  Max     0.006244294 RMS     0.002746704
 Z-matrix is all fixed cartesians, so copy forces.
 Force constants in Cartesian coordinates: 
                1             2             3             4             5 
      1  0.137694D-01
      2  0.685508D-02  0.137874D-01
      3 -0.911078D-02 -0.874546D-02  0.782496D-02
      4 -0.170083D-01 -0.348627D-02  0.920729D-02  0.369040D-01
      5 -0.944032D-02 -0.110994D-01  0.882148D-02 -0.508172D-02  0.292264D-01
      6  0.116404D-01  0.608360D-02 -0.793550D-02 -0.163547D-01 -0.106066D-01
      7  0.325756D-02 -0.335238D-02 -0.561194D-04 -0.187656D-01  0.153824D-01
      8  0.260097D-02 -0.267415D-02 -0.419018D-04  0.584472D-02 -0.202168D-01
      9 -0.251355D-02  0.267607D-02  0.145468D-03  0.834649D-02  0.269903D-02
     10 -0.186280D-04 -0.164311D-04 -0.403847D-04 -0.110474D-02 -0.838979D-03
     11 -0.157406D-04 -0.138843D-04 -0.341250D-04  0.269705D-02  0.206768D-02
     12 -0.161123D-04 -0.142120D-04 -0.349306D-04 -0.117427D-02 -0.892950D-03
     13  0.000000D+00  0.000000D+00  0.000000D+00 -0.253275D-04 -0.214017D-04
     14  0.000000D+00  0.000000D+00  0.000000D+00  0.262247D-04  0.221598D-04
     15  0.000000D+00  0.000000D+00  0.000000D+00 -0.247762D-04 -0.209358D-04
     16  0.000000D+00  0.000000D+00  0.000000D+00  0.000000D+00  0.000000D+00
     17  0.000000D+00  0.000000D+00  0.000000D+00  0.000000D+00  0.000000D+00
     18  0.000000D+00  0.000000D+00  0.000000D+00  0.000000D+00  0.000000D+00
     19  0.000000D+00  0.000000D+00  0.000000D+00  0.000000D+00  0.000000D+00
     20  0.000000D+00  0.000000D+00  0.000000D+00  0.000000D+00  0.000000D+00
     21  0.000000D+00  0.000000D+00  0.000000D+00  0.000000D+00  0.000000D+00
                6             7             8             9            10 
      6  0.149859D-01
      7  0.236884D-02  0.325985D-01
      8  0.959612D-02 -0.989849D-02  0.352264D-01
      9 -0.950411D-02 -0.179938D-01 -0.957525D-02  0.325462D-01
     10  0.236737D-02 -0.156831D-01  0.400922D-02  0.132958D-01  0.260683D-01
     11 -0.509578D-02 -0.298482D-02 -0.139204D-01  0.351416D-02  0.430782D-02
     12  0.247516D-02  0.131718D-01 -0.431155D-02 -0.252247D-01 -0.121352D-01
     13 -0.219069D-04 -0.137659D-02 -0.258831D-02 -0.110482D-02 -0.864110D-02
     14  0.226830D-04  0.832024D-03  0.160695D-02  0.665202D-03 -0.447114D-02
     15 -0.214301D-04  0.247096D-02  0.437227D-02  0.199963D-02 -0.445542D-02
     16  0.000000D+00 -0.308002D-04  0.318913D-04 -0.301298D-04 -0.620748D-03
     17  0.000000D+00  0.212508D-04 -0.220036D-04  0.207882D-04 -0.294567D-02
     18  0.000000D+00  0.383334D-04 -0.396913D-04  0.374990D-04  0.965301D-03
     19  0.000000D+00  0.000000D+00  0.000000D+00  0.000000D+00  0.000000D+00
     20  0.000000D+00  0.000000D+00  0.000000D+00  0.000000D+00 -0.448237D-04
     21  0.000000D+00  0.000000D+00  0.000000D+00  0.000000D+00  0.254376D-05
               11            12            13            14            15 
     11  0.258415D-01
     12  0.682628D-02  0.316372D-01
     13 -0.470827D-02  0.115504D-02  0.345585D-01
     14 -0.172623D-01  0.254666D-02  0.660422D-02  0.253764D-01
     15 -0.411887D-02 -0.103756D-01  0.137169D-01 -0.562187D-02  0.288615D-01
     16  0.703972D-03 -0.100123D-02 -0.209562D-01 -0.324882D-02 -0.162630D-01
     17  0.325649D-02 -0.421002D-02  0.815838D-03 -0.970746D-02  0.525631D-02
     18 -0.108992D-02  0.152606D-02 -0.106089D-01  0.215798D-02 -0.244780D-01
     19  0.000000D+00  0.000000D+00 -0.355922D-02  0.257495D-03  0.455531D-02
     20  0.309264D-04  0.557868D-04 -0.102070D-03 -0.357371D-04  0.133099D-03
     21 -0.175508D-05 -0.316592D-05 -0.313638D-02  0.229341D-03  0.401400D-02
               16            17            18            19            20 
     16  0.389187D-01
     17  0.153355D-02  0.661873D-02
     18 -0.615689D-03  0.544664D-03  0.514633D-01
     19 -0.173109D-01  0.575034D-03  0.102209D-01  0.208701D-01
     20  0.979414D-03 -0.145753D-03 -0.157304D-02 -0.832520D-03  0.150564D-03
     21  0.179100D-01 -0.161174D-02 -0.285488D-01 -0.147762D-01  0.138415D-02
               21 
     21  0.245380D-01
 Leave Link  716 at Tue Nov 21 11:50:40 2023, MaxMem=   104857600 cpu:               0.9 elap:               0.1
 (Enter /home/sekinelabo/g16/l103.exe)

 GradGradGradGradGradGradGradGradGradGradGradGradGradGradGradGradGradGrad
 Berny optimization.
 Search for a local minimum.
 Step number   1 out of a maximum of    2
 All quantities printed in internal units (Hartrees-Bohrs-Radians)
 Second derivative matrix not updated -- first step.
 ITU=  0
     Eigenvalues ---    0.00004   0.00009   0.00020   0.00047   0.00624
     Eigenvalues ---    0.00765   0.02164   0.02576   0.03634   0.04615
     Eigenvalues ---    0.05680   0.07415   0.07851   0.08703   0.09072
 Eigenvalue     1 is   4.39D-05 Eigenvector:
                          X1        Z1        X6        Y6        Y4
   1                    0.60223   0.33017  -0.32997   0.31895  -0.30169
                          Z5        X5        X2        X7        Y5
   1                   -0.23890  -0.17825   0.17315  -0.14835  -0.11992
 Eigenvalue     2 is   8.65D-05 Eigenvector:
                          Y7        Y6        Z5        Z7        X3
   1                    0.60962  -0.40701   0.26500  -0.25965  -0.23152
                          Z2        X1        Z4        Y5        X6
   1                   -0.21767   0.21257   0.20782  -0.19950   0.19679
 Quadratic step=1.021D+01 exceeds max=3.000D-01 adjusted using Lamda=-4.552D-03.
 Angle between NR and scaled steps=  40.96 degrees.
 Angle between quadratic step and forces=  48.79 degrees.
 Linear search not attempted -- first point.
 B after Tr=     0.000000    0.000000   -0.000000
         Rot=    1.000000   -0.000000   -0.000000    0.000000 Ang=   0.00 deg.
 Variable       Old X    -DE/DX   Delta X   Delta X   Delta X     New X
                                 (Linear)    (Quad)   (Total)
    X1       17.44319  -0.00146   0.00000  -0.14812  -0.14812  17.29507
    Y1        0.53626   0.00115   0.00000   0.03765   0.03765   0.57390
    Z1        3.50731  -0.00050   0.00000  -0.09698  -0.09698   3.41033
    X2       21.08745   0.00358   0.00000   0.06901   0.06901  21.15647
    Y2        4.13005  -0.00266   0.00000  -0.07679  -0.07679   4.05326
    Z2        0.36416  -0.00041   0.00000   0.03319   0.03319   0.39734
    X3       17.32688  -0.00018   0.00000   0.03074   0.03074  17.35762
    Y3        8.71392   0.00096   0.00000   0.00127   0.00127   8.71520
    Z3        0.23376  -0.00212   0.00000  -0.02927  -0.02927   0.20449
    X4       13.43110  -0.00428   0.00000  -0.05763  -0.05763  13.37346
    Y4        8.97019  -0.00100   0.00000   0.05756   0.05756   9.02775
    Z4        4.48748   0.00242   0.00000   0.02128   0.02128   4.50875
    X5        9.07433   0.00624   0.00000   0.11078   0.11078   9.18512
    Y5        4.03831   0.00193   0.00000   0.07841   0.07841   4.11672
    Z5        3.72097   0.00418   0.00000   0.09660   0.09660   3.81756
    X6        4.55311  -0.00228   0.00000   0.02805   0.02805   4.58115
    Y6        3.83716  -0.00015   0.00000  -0.02309  -0.02309   3.81408
    Z6        0.19974  -0.00564   0.00000  -0.03123  -0.03123   0.16852
    X7        0.81576  -0.00162   0.00000  -0.03283  -0.03283   0.78293
    Y7        4.07633  -0.00023   0.00000  -0.07501  -0.07501   4.00132
    Z7        4.43317   0.00206   0.00000   0.00641   0.00641   4.43958
         Item               Value     Threshold  Converged?
 Maximum Force            0.006244     0.000450     NO 
 RMS     Force            0.002747     0.000300     NO 
 Maximum Displacement     0.148122     0.001800     NO 
 RMS     Displacement     0.065541     0.001200     NO 
 Predicted change in Energy=-1.451905D-03
 GradGradGradGradGradGradGradGradGradGradGradGradGradGradGradGradGradGrad

 Leave Link  103 at Tue Nov 21 11:50:40 2023, MaxMem=   104857600 cpu:               1.7 elap:               0.2
 (Enter /home/sekinelabo/g16/l9999.exe)
 1\1\GINC-SEKINELABO-XA7R-R37\Force\UB3LYP\6-311+G(d)\Na7(2)\SEKINELABO
 \21-Nov-2023\0\\#P B3LYP/6-311+g(d) force\\DPGEN\\0,2\Na,9.23054,0.283
 775,1.85599\Na,11.159,2.18553,0.192703\Na,9.16899,4.61121,0.1237\Na,7.
 10743,4.74682,2.37467\Na,4.80193,2.13698,1.96905\Na,2.4094,2.03054,0.1
 057\Na,0.431683,2.1571,2.34593\\Version=ES64L-G16RevB.01\State=2-A\HF=
 -1136.1047695\S2=0.801432\S2-1=0.\S2A=0.751228\RMSD=6.560e-09\RMSF=2.7
 47e-03\Dipole=-0.9926357,-0.1407628,0.0520213\Quadrupole=2.924351,-5.2
 159202,2.2915692,1.7190035,-3.2326081,-1.0353831\PG=C01 [X(Na7)]\\@


 When cryptography is outlawed, bayl bhgynjf jvyy unir cevinpl.
 Job cpu time:       0 days  0 hours 13 minutes 26.4 seconds.
 Elapsed time:       0 days  0 hours 10 minutes 22.2 seconds.
 File lengths (MBytes):  RWF=     46 Int=      0 D2E=      0 Chk=      4 Scr=      1
 Normal termination of Gaussian 16 at Tue Nov 21 11:50:40 2023.
