 Entering Gaussian System, Link 0=g16
 Initial command:
 /home/sekinelabo/g16/l1.exe "/home/sekinelabo/g16temp/Gau-1046124.inp" -scrdir="/home/sekinelabo/g16temp/"
 Entering Link 1 = /home/sekinelabo/g16/l1.exe PID=   1046134.
  
 Copyright (c) 1988-2017, Gaussian, Inc.  All Rights Reserved.
  
 This is part of the Gaussian(R) 16 program.  It is based on
 the Gaussian(R) 09 system (copyright 2009, Gaussian, Inc.),
 the Gaussian(R) 03 system (copyright 2003, Gaussian, Inc.),
 the Gaussian(R) 98 system (copyright 1998, Gaussian, Inc.),
 the Gaussian(R) 94 system (copyright 1995, Gaussian, Inc.),
 the Gaussian 92(TM) system (copyright 1992, Gaussian, Inc.),
 the Gaussian 90(TM) system (copyright 1990, Gaussian, Inc.),
 the Gaussian 88(TM) system (copyright 1988, Gaussian, Inc.),
 the Gaussian 86(TM) system (copyright 1986, Carnegie Mellon
 University), and the Gaussian 82(TM) system (copyright 1983,
 Carnegie Mellon University). Gaussian is a federally registered
 trademark of Gaussian, Inc.
  
 This software contains proprietary and confidential information,
 including trade secrets, belonging to Gaussian, Inc.
  
 This software is provided under written license and may be
 used, copied, transmitted, or stored only in accord with that
 written license.
  
 The following legend is applicable only to US Government
 contracts under FAR:
  
                    RESTRICTED RIGHTS LEGEND
  
 Use, reproduction and disclosure by the US Government is
 subject to restrictions as set forth in subparagraphs (a)
 and (c) of the Commercial Computer Software - Restricted
 Rights clause in FAR 52.227-19.
  
 Gaussian, Inc.
 340 Quinnipiac St., Bldg. 40, Wallingford CT 06492
  
  
 ---------------------------------------------------------------
 Warning -- This program may not be used in any manner that
 competes with the business of Gaussian, Inc. or will provide
 assistance to any competitor of Gaussian, Inc.  The licensee
 of this program is prohibited from giving any competitor of
 Gaussian, Inc. access to this program.  By using this program,
 the user acknowledges that Gaussian, Inc. is engaged in the
 business of creating and licensing software in the field of
 computational chemistry and represents and warrants to the
 licensee that it is not a competitor of Gaussian, Inc. and that
 it will not use this program in any manner prohibited above.
 ---------------------------------------------------------------
  

 Cite this work as:
 Gaussian 16, Revision B.01,
 M. J. Frisch, G. W. Trucks, H. B. Schlegel, G. E. Scuseria, 
 M. A. Robb, J. R. Cheeseman, G. Scalmani, V. Barone, 
 G. A. Petersson, H. Nakatsuji, X. Li, M. Caricato, A. V. Marenich, 
 J. Bloino, B. G. Janesko, R. Gomperts, B. Mennucci, H. P. Hratchian, 
 J. V. Ortiz, A. F. Izmaylov, J. L. Sonnenberg, D. Williams-Young, 
 F. Ding, F. Lipparini, F. Egidi, J. Goings, B. Peng, A. Petrone, 
 T. Henderson, D. Ranasinghe, V. G. Zakrzewski, J. Gao, N. Rega, 
 G. Zheng, W. Liang, M. Hada, M. Ehara, K. Toyota, R. Fukuda, 
 J. Hasegawa, M. Ishida, T. Nakajima, Y. Honda, O. Kitao, H. Nakai, 
 T. Vreven, K. Throssell, J. A. Montgomery, Jr., J. E. Peralta, 
 F. Ogliaro, M. J. Bearpark, J. J. Heyd, E. N. Brothers, K. N. Kudin, 
 V. N. Staroverov, T. A. Keith, R. Kobayashi, J. Normand, 
 K. Raghavachari, A. P. Rendell, J. C. Burant, S. S. Iyengar, 
 J. Tomasi, M. Cossi, J. M. Millam, M. Klene, C. Adamo, R. Cammi, 
 J. W. Ochterski, R. L. Martin, K. Morokuma, O. Farkas, 
 J. B. Foresman, and D. J. Fox, Gaussian, Inc., Wallingford CT, 2016.
 
 ******************************************
 Gaussian 16:  ES64L-G16RevB.01 20-Dec-2017
                23-Nov-2023 
 ******************************************
 %nprocshared=14
 Will use up to   14 processors via shared memory.
 -------------------------
 #P B3LYP/6-311+g(d) force
 -------------------------
 1/10=7,30=1,38=1/1,3;
 2/12=2,17=6,18=5,40=1/2;
 3/5=4,6=6,7=11,11=2,25=1,30=1,71=1,74=-5/1,2,3;
 4//1;
 5/5=2,38=5/2;
 6/7=2,8=2,9=2,10=2,28=1/1;
 7/29=1/1,2,3,16;
 1/10=7,30=1/3;
 99//99;
 Leave Link    1 at Thu Nov 23 12:30:20 2023, MaxMem=           0 cpu:               0.4 elap:               0.2
 (Enter /home/sekinelabo/g16/l101.exe)
 -----
 DPGEN
 -----
 Symbolic Z-matrix:
 Charge =  0 Multiplicity = 2
 Na                    11.5406   1.26932   99.1698 
 Na                    9.8016    3.09807   0.93534 
 Na                    9.57129   1.19382   3.17732 
 Na                    5.85048   1.45657   4.56852 
 Na                    3.05366   1.98553   3.58781 
 Na                    2.70314   3.6667    99.6905 
 Na                    1.78825   5.48196   97.8384 
 
 ITRead=  0  0  0  0  0  0  0
 MicOpt= -1 -1 -1 -1 -1 -1 -1
 NAtoms=      7 NQM=        7 NQMF=       0 NMMI=      0 NMMIF=      0
                NMic=       0 NMicF=      0.
                    Isotopes and Nuclear Properties:
 (Nuclear quadrupole moments (NQMom) in fm**2, nuclear magnetic moments (NMagM)
  in nuclear magnetons)

  Atom         1           2           3           4           5           6           7
 IAtWgt=          23          23          23          23          23          23          23
 AtmWgt=  22.9897697  22.9897697  22.9897697  22.9897697  22.9897697  22.9897697  22.9897697
 NucSpn=           3           3           3           3           3           3           3
 AtZEff=  -0.0000000  -0.0000000  -0.0000000  -0.0000000  -0.0000000  -0.0000000  -0.0000000
 NQMom=   10.4000000  10.4000000  10.4000000  10.4000000  10.4000000  10.4000000  10.4000000
 NMagM=    2.2175200   2.2175200   2.2175200   2.2175200   2.2175200   2.2175200   2.2175200
 AtZNuc=  11.0000000  11.0000000  11.0000000  11.0000000  11.0000000  11.0000000  11.0000000
 Leave Link  101 at Thu Nov 23 12:30:22 2023, MaxMem=   104857600 cpu:               2.5 elap:               2.9
 (Enter /home/sekinelabo/g16/l103.exe)

 GradGradGradGradGradGradGradGradGradGradGradGradGradGradGradGradGradGrad
 Berny optimization.
 Initialization pass.
 Trust Radius=3.00D-01 FncErr=1.00D-07 GrdErr=1.00D-07 EigMax=2.50D+02 EigMin=1.00D-04
 Number of steps in this run=      2 maximum allowed number of steps=      2.
 GradGradGradGradGradGradGradGradGradGradGradGradGradGradGradGradGradGrad

 Leave Link  103 at Thu Nov 23 12:30:23 2023, MaxMem=   104857600 cpu:               0.5 elap:               0.5
 (Enter /home/sekinelabo/g16/l202.exe)
                          Input orientation:                          
 ---------------------------------------------------------------------
 Center     Atomic      Atomic             Coordinates (Angstroms)
 Number     Number       Type             X           Y           Z
 ---------------------------------------------------------------------
      1         11           0       11.540600    1.269320   99.169800
      2         11           0        9.801600    3.098070    0.935343
      3         11           0        9.571290    1.193820    3.177320
      4         11           0        5.850480    1.456570    4.568520
      5         11           0        3.053660    1.985530    3.587810
      6         11           0        2.703140    3.666700   99.690500
      7         11           0        1.788250    5.481960   97.838400
 ---------------------------------------------------------------------
                    Distance matrix (angstroms):
                    1          2          3          4          5
     1  Na   0.000000
     2  Na  98.266866   0.000000
     3  Na  96.012708   2.950538   0.000000
     4  Na  94.772436   5.613007   3.981068   0.000000
     5  Na  95.960710   7.335395   6.578359   3.010613   0.000000
     6  Na   9.171655  99.011578  96.788845  95.199693  96.118033
     7  Na  10.706414  97.263041  95.077252  93.445043  94.323910
                    6          7
     6  Na   0.000000
     7  Na   2.749994   0.000000
 Stoichiometry    Na7(2)
 Framework group  C1[X(Na7)]
 Deg. of freedom    15
 Full point group                 C1      NOp   1
 Largest Abelian subgroup         C1      NOp   1
 Largest concise Abelian subgroup C1      NOp   1
                         Standard orientation:                         
 ---------------------------------------------------------------------
 Center     Atomic      Atomic             Coordinates (Angstroms)
 Number     Number       Type             X           Y           Z
 ---------------------------------------------------------------------
      1         11           0       54.898152    6.564657   -0.689135
      2         11           0      -43.246464    2.326012    1.769588
      3         11           0      -41.030805    2.590212   -0.160886
      4         11           0      -39.567054   -1.059721   -0.780824
      5         11           0      -40.487425   -3.923637   -0.902042
      6         11           0       55.619853   -2.574167   -0.405771
      7         11           0       53.813744   -3.923356    1.169071
 ---------------------------------------------------------------------
 Rotational constants (GHZ):           0.2190868           0.0013941           0.0013864
 Leave Link  202 at Thu Nov 23 12:30:24 2023, MaxMem=   104857600 cpu:               0.9 elap:               0.9
 (Enter /home/sekinelabo/g16/l301.exe)
 Standard basis: 6-311+G(d) (5D, 7F)
 Ernie: Thresh=  0.10000D-02 Tol=  0.10000D-05 Strict=F.
 There are   217 symmetry adapted cartesian basis functions of A   symmetry.
 There are   210 symmetry adapted basis functions of A   symmetry.
   210 basis functions,   350 primitive gaussians,   217 cartesian basis functions
    39 alpha electrons       38 beta electrons
       nuclear repulsion energy       133.1731983650 Hartrees.
 IExCor=  402 DFT=T Ex+Corr=B3LYP ExCW=0 ScaHFX=  0.200000
 ScaDFX=  0.800000  0.720000  1.000000  0.810000 ScalE2=  1.000000  1.000000
 IRadAn=      5 IRanWt=     -1 IRanGd=            0 ICorTp=0 IEmpDi=  4
 NAtoms=    7 NActive=    7 NUniq=    7 SFac= 1.00D+00 NAtFMM=   60 NAOKFM=F Big=F
 Integral buffers will be    131072 words long.
 Raffenetti 2 integral format.
 Two-electron integral symmetry is turned on.
 Leave Link  301 at Thu Nov 23 12:30:25 2023, MaxMem=   104857600 cpu:               0.8 elap:               1.0
 (Enter /home/sekinelabo/g16/l302.exe)
 NPDir=0 NMtPBC=     1 NCelOv=     1 NCel=       1 NClECP=     1 NCelD=      1
         NCelK=      1 NCelE2=     1 NClLst=     1 CellRange=     0.0.
 One-electron integrals computed using PRISM.
 One-electron integral symmetry used in STVInt
 NBasis=   210 RedAO= T EigKep=  3.58D-05  NBF=   210
 NBsUse=   210 1.00D-06 EigRej= -1.00D+00 NBFU=   210
 Precomputing XC quadrature grid using
 IXCGrd= 4 IRadAn=           5 IRanWt=          -1 IRanGd=           0 AccXCQ= 0.00D+00.
 Generated NRdTot=       0 NPtTot=           0 NUsed=           0 NTot=          32
 NSgBfM=   116   116   116   116   116 MxSgAt=     7 MxSgA2=     4.
 Leave Link  302 at Thu Nov 23 12:31:02 2023, MaxMem=   104857600 cpu:              28.9 elap:              36.2
 (Enter /home/sekinelabo/g16/l303.exe)
 DipDrv:  MaxL=1.
 Leave Link  303 at Thu Nov 23 12:31:05 2023, MaxMem=   104857600 cpu:               2.4 elap:               3.1
 (Enter /home/sekinelabo/g16/l401.exe)
 ExpMin= 7.60D-03 ExpMax= 3.62D+04 ExpMxC= 1.21D+03 IAcc=3 IRadAn=         5 AccDes= 0.00D+00
 Harris functional with IExCor=  402 and IRadAn=       5 diagonalized for initial guess.
 HarFok:  IExCor=  402 AccDes= 0.00D+00 IRadAn=         5 IDoV= 1 UseB2=F ITyADJ=14
 ICtDFT=  3500011 ScaDFX=  1.000000  1.000000  1.000000  1.000000
 FoFCou: FMM=F IPFlag=           0 FMFlag=      100000 FMFlg1=           0
         NFxFlg=           0 DoJE=T BraDBF=F KetDBF=T FulRan=T
         wScrn=  0.000000 ICntrl=       500 IOpCl=  0 I1Cent=   200000004 NGrid=           0
         NMat0=    1 NMatS0=      1 NMatT0=    0 NMatD0=    1 NMtDS0=    0 NMtDT0=    0
 Petite list used in FoFCou.
 Harris En= -1135.85856966738    
 JPrj=0 DoOrth=F DoCkMO=F.
 Initial guess <Sx>= 0.0000 <Sy>= 0.0000 <Sz>= 0.5000 <S**2>= 0.7500 S= 0.5000
 Leave Link  401 at Thu Nov 23 12:31:26 2023, MaxMem=   104857600 cpu:              16.2 elap:              20.8
 (Enter /home/sekinelabo/g16/l502.exe)
 Integral symmetry usage will be decided dynamically.
 UHF open shell SCF:
 Using DIIS extrapolation, IDIIS=  1040.
 NGot=   104857600 LenX=   104758440 LenY=   104710910
 Requested convergence on RMS density matrix=1.00D-08 within 128 cycles.
 Requested convergence on MAX density matrix=1.00D-06.
 Requested convergence on             energy=1.00D-06.
 No special actions if energy rises.
 Fock matrices will be formed incrementally for  20 cycles.

 Cycle   1  Pass 1  IDiag  1:
 FoFJK:  IHMeth= 1 ICntrl=       0 DoSepK=F KAlg= 0 I1Cent=           0 FoldK=F
 IRaf= 450000000 NMat=       1 IRICut=       1 DoRegI=T DoRafI=F ISym2E= 0 IDoP0=0 IntGTp=1.
 FoFCou: FMM=F IPFlag=           0 FMFlag=      100000 FMFlg1=           0
         NFxFlg=           0 DoJE=F BraDBF=F KetDBF=F FulRan=T
         wScrn=  0.000000 ICntrl=         0 IOpCl=  1 I1Cent=           0 NGrid=           0
         NMat0=    1 NMatS0=      1 NMatT0=    0 NMatD0=    1 NMtDS0=    0 NMtDT0=    0
 Symmetry not used in FoFCou.
 E= -1136.06525320756    
 DIIS: error= 1.55D-02 at cycle   1 NSaved=   1.
 NSaved= 1 IEnMin= 1 EnMin= -1136.06525320756     IErMin= 1 ErrMin= 1.55D-02
 ErrMax= 1.55D-02  0.00D+00 EMaxC= 1.00D-01 BMatC= 1.82D-01 BMatP= 1.82D-01
 IDIUse=3 WtCom= 8.45D-01 WtEn= 1.55D-01
 Coeff-Com:  0.100D+01
 Coeff-En:   0.100D+01
 Coeff:      0.100D+01
 Gap=     0.070 Goal=   None    Shift=    0.000
 Gap=     0.046 Goal=   None    Shift=    0.000
 GapD=    0.046 DampG=0.250 DampE=0.500 DampFc=0.2500 IDamp=-1.
 Damping current iteration by 2.50D-01
 RMSDP=1.93D-03 MaxDP=8.44D-02              OVMax= 9.68D-02

 Cycle   2  Pass 1  IDiag  1:
 RMSU=  4.79D-04    CP:  9.97D-01
 E= -1136.07254246708     Delta-E=       -0.007289259527 Rises=F Damp=T
 DIIS: error= 1.07D-02 at cycle   2 NSaved=   2.
 NSaved= 2 IEnMin= 2 EnMin= -1136.07254246708     IErMin= 2 ErrMin= 1.07D-02
 ErrMax= 1.07D-02  0.00D+00 EMaxC= 1.00D-01 BMatC= 7.09D-02 BMatP= 1.82D-01
 IDIUse=3 WtCom= 8.93D-01 WtEn= 1.07D-01
 Coeff-Com: -0.133D+01 0.233D+01
 Coeff-En:   0.000D+00 0.100D+01
 Coeff:     -0.119D+01 0.219D+01
 Gap=     0.055 Goal=   None    Shift=    0.000
 Gap=     0.056 Goal=   None    Shift=    0.000
 RMSDP=1.46D-03 MaxDP=4.84D-02 DE=-7.29D-03 OVMax= 2.74D-02

 Cycle   3  Pass 1  IDiag  1:
 RMSU=  6.94D-04    CP:  9.84D-01  3.00D+00
 E= -1136.08787346335     Delta-E=       -0.015330996268 Rises=F Damp=F
 DIIS: error= 4.08D-04 at cycle   3 NSaved=   3.
 NSaved= 3 IEnMin= 3 EnMin= -1136.08787346335     IErMin= 3 ErrMin= 4.08D-04
 ErrMax= 4.08D-04  0.00D+00 EMaxC= 1.00D-01 BMatC= 1.13D-04 BMatP= 7.09D-02
 IDIUse=3 WtCom= 9.96D-01 WtEn= 4.08D-03
 Coeff-Com:  0.382D-01-0.436D-01 0.101D+01
 Coeff-En:   0.000D+00 0.000D+00 0.100D+01
 Coeff:      0.380D-01-0.434D-01 0.101D+01
 Gap=     0.056 Goal=   None    Shift=    0.000
 Gap=     0.056 Goal=   None    Shift=    0.000
 RMSDP=1.61D-04 MaxDP=6.90D-03 DE=-1.53D-02 OVMax= 1.43D-02

 Cycle   4  Pass 1  IDiag  1:
 RMSU=  1.55D-04    CP:  9.84D-01  3.00D+00  1.06D+00
 E= -1136.08790647402     Delta-E=       -0.000033010672 Rises=F Damp=F
 DIIS: error= 2.58D-04 at cycle   4 NSaved=   4.
 NSaved= 4 IEnMin= 4 EnMin= -1136.08790647402     IErMin= 4 ErrMin= 2.58D-04
 ErrMax= 2.58D-04  0.00D+00 EMaxC= 1.00D-01 BMatC= 3.82D-05 BMatP= 1.13D-04
 IDIUse=3 WtCom= 9.97D-01 WtEn= 2.58D-03
 Coeff-Com:  0.228D-01-0.297D-01 0.393D+00 0.614D+00
 Coeff-En:   0.000D+00 0.000D+00 0.244D+00 0.756D+00
 Coeff:      0.228D-01-0.297D-01 0.393D+00 0.614D+00
 Gap=     0.055 Goal=   None    Shift=    0.000
 Gap=     0.055 Goal=   None    Shift=    0.000
 RMSDP=9.71D-05 MaxDP=6.54D-03 DE=-3.30D-05 OVMax= 9.38D-03

 Cycle   5  Pass 1  IDiag  1:
 RMSU=  5.29D-05    CP:  9.84D-01  3.00D+00  1.10D+00  5.01D-01
 E= -1136.08793246352     Delta-E=       -0.000025989499 Rises=F Damp=F
 DIIS: error= 1.06D-04 at cycle   5 NSaved=   5.
 NSaved= 5 IEnMin= 5 EnMin= -1136.08793246352     IErMin= 5 ErrMin= 1.06D-04
 ErrMax= 1.06D-04  0.00D+00 EMaxC= 1.00D-01 BMatC= 5.79D-06 BMatP= 3.82D-05
 IDIUse=3 WtCom= 9.99D-01 WtEn= 1.06D-03
 Coeff-Com:  0.811D-02-0.110D-01 0.124D+00 0.321D+00 0.558D+00
 Coeff-En:   0.000D+00 0.000D+00 0.000D+00 0.830D-01 0.917D+00
 Coeff:      0.810D-02-0.110D-01 0.123D+00 0.321D+00 0.558D+00
 Gap=     0.055 Goal=   None    Shift=    0.000
 Gap=     0.055 Goal=   None    Shift=    0.000
 RMSDP=3.50D-05 MaxDP=2.10D-03 DE=-2.60D-05 OVMax= 2.67D-03

 Cycle   6  Pass 1  IDiag  1:
 RMSU=  1.08D-05    CP:  9.83D-01  3.00D+00  1.10D+00  6.30D-01  5.02D-01
 E= -1136.08793739394     Delta-E=       -0.000004930420 Rises=F Damp=F
 DIIS: error= 1.02D-05 at cycle   6 NSaved=   6.
 NSaved= 6 IEnMin= 6 EnMin= -1136.08793739394     IErMin= 6 ErrMin= 1.02D-05
 ErrMax= 1.02D-05  0.00D+00 EMaxC= 1.00D-01 BMatC= 6.81D-08 BMatP= 5.79D-06
 IDIUse=1 WtCom= 1.00D+00 WtEn= 0.00D+00
 Coeff-Com: -0.516D-03 0.603D-03 0.885D-02 0.366D-01 0.112D+00 0.843D+00
 Coeff:     -0.516D-03 0.603D-03 0.885D-02 0.366D-01 0.112D+00 0.843D+00
 Gap=     0.055 Goal=   None    Shift=    0.000
 Gap=     0.055 Goal=   None    Shift=    0.000
 RMSDP=3.51D-06 MaxDP=2.34D-04 DE=-4.93D-06 OVMax= 3.00D-04

 Cycle   7  Pass 1  IDiag  1:
 RMSU=  2.79D-06    CP:  9.83D-01  3.00D+00  1.10D+00  6.32D-01  5.26D-01
                    CP:  1.06D+00
 E= -1136.08793742732     Delta-E=       -0.000000033382 Rises=F Damp=F
 DIIS: error= 2.68D-06 at cycle   7 NSaved=   7.
 NSaved= 7 IEnMin= 7 EnMin= -1136.08793742732     IErMin= 7 ErrMin= 2.68D-06
 ErrMax= 2.68D-06  0.00D+00 EMaxC= 1.00D-01 BMatC= 8.63D-09 BMatP= 6.81D-08
 IDIUse=1 WtCom= 1.00D+00 WtEn= 0.00D+00
 Coeff-Com: -0.617D-03 0.793D-03-0.226D-02-0.173D-02 0.161D-01 0.346D+00
 Coeff-Com:  0.642D+00
 Coeff:     -0.617D-03 0.793D-03-0.226D-02-0.173D-02 0.161D-01 0.346D+00
 Coeff:      0.642D+00
 Gap=     0.055 Goal=   None    Shift=    0.000
 Gap=     0.055 Goal=   None    Shift=    0.000
 RMSDP=1.10D-06 MaxDP=7.33D-05 DE=-3.34D-08 OVMax= 1.18D-04

 Cycle   8  Pass 1  IDiag  1:
 RMSU=  5.78D-07    CP:  9.83D-01  3.00D+00  1.10D+00  6.32D-01  5.25D-01
                    CP:  1.12D+00  7.86D-01
 E= -1136.08793743210     Delta-E=       -0.000000004775 Rises=F Damp=F
 DIIS: error= 6.77D-07 at cycle   8 NSaved=   8.
 NSaved= 8 IEnMin= 8 EnMin= -1136.08793743210     IErMin= 8 ErrMin= 6.77D-07
 ErrMax= 6.77D-07  0.00D+00 EMaxC= 1.00D-01 BMatC= 5.92D-10 BMatP= 8.63D-09
 IDIUse=1 WtCom= 1.00D+00 WtEn= 0.00D+00
 Coeff-Com: -0.136D-03 0.176D-03-0.148D-02-0.420D-02-0.500D-02 0.586D-01
 Coeff-Com:  0.221D+00 0.731D+00
 Coeff:     -0.136D-03 0.176D-03-0.148D-02-0.420D-02-0.500D-02 0.586D-01
 Coeff:      0.221D+00 0.731D+00
 Gap=     0.055 Goal=   None    Shift=    0.000
 Gap=     0.055 Goal=   None    Shift=    0.000
 RMSDP=3.70D-07 MaxDP=2.11D-05 DE=-4.77D-09 OVMax= 2.63D-05

 Cycle   9  Pass 1  IDiag  1:
 RMSU=  1.54D-07    CP:  9.83D-01  3.00D+00  1.10D+00  6.32D-01  5.25D-01
                    CP:  1.15D+00  8.59D-01  9.80D-01
 E= -1136.08793743237     Delta-E=       -0.000000000273 Rises=F Damp=F
 DIIS: error= 1.80D-07 at cycle   9 NSaved=   9.
 NSaved= 9 IEnMin= 9 EnMin= -1136.08793743237     IErMin= 9 ErrMin= 1.80D-07
 ErrMax= 1.80D-07  0.00D+00 EMaxC= 1.00D-01 BMatC= 4.80D-11 BMatP= 5.92D-10
 IDIUse=1 WtCom= 1.00D+00 WtEn= 0.00D+00
 Coeff-Com:  0.495D-04-0.643D-04-0.148D-03-0.125D-02-0.430D-02-0.224D-01
 Coeff-Com: -0.734D-03 0.218D+00 0.811D+00
 Coeff:      0.495D-04-0.643D-04-0.148D-03-0.125D-02-0.430D-02-0.224D-01
 Coeff:     -0.734D-03 0.218D+00 0.811D+00
 Gap=     0.055 Goal=   None    Shift=    0.000
 Gap=     0.055 Goal=   None    Shift=    0.000
 RMSDP=1.55D-07 MaxDP=6.35D-06 DE=-2.73D-10 OVMax= 6.90D-06

 Cycle  10  Pass 1  IDiag  1:
 RMSU=  4.57D-08    CP:  9.83D-01  3.00D+00  1.10D+00  6.32D-01  5.24D-01
                    CP:  1.16D+00  8.79D-01  1.09D+00  1.09D+00
 E= -1136.08793743241     Delta-E=       -0.000000000042 Rises=F Damp=F
 DIIS: error= 9.17D-08 at cycle  10 NSaved=  10.
 NSaved=10 IEnMin=10 EnMin= -1136.08793743241     IErMin=10 ErrMin= 9.17D-08
 ErrMax= 9.17D-08  0.00D+00 EMaxC= 1.00D-01 BMatC= 1.21D-12 BMatP= 4.80D-11
 IDIUse=1 WtCom= 1.00D+00 WtEn= 0.00D+00
 Coeff-Com:  0.380D-05-0.481D-05 0.152D-04 0.440D-04-0.958D-04-0.265D-02
 Coeff-Com: -0.657D-02-0.711D-02 0.443D-01 0.972D+00
 Coeff:      0.380D-05-0.481D-05 0.152D-04 0.440D-04-0.958D-04-0.265D-02
 Coeff:     -0.657D-02-0.711D-02 0.443D-01 0.972D+00
 Gap=     0.055 Goal=   None    Shift=    0.000
 Gap=     0.055 Goal=   None    Shift=    0.000
 RMSDP=3.53D-08 MaxDP=3.06D-06 DE=-4.18D-11 OVMax= 4.59D-06

 Cycle  11  Pass 1  IDiag  1:
 RMSU=  1.50D-08    CP:  9.83D-01  3.00D+00  1.10D+00  6.32D-01  5.23D-01
                    CP:  1.16D+00  8.83D-01  1.12D+00  1.17D+00  1.42D+00
 E= -1136.08793743241     Delta-E=       -0.000000000001 Rises=F Damp=F
 DIIS: error= 5.97D-08 at cycle  11 NSaved=  11.
 NSaved=11 IEnMin=11 EnMin= -1136.08793743241     IErMin=11 ErrMin= 5.97D-08
 ErrMax= 5.97D-08  0.00D+00 EMaxC= 1.00D-01 BMatC= 4.51D-13 BMatP= 1.21D-12
 IDIUse=1 WtCom= 1.00D+00 WtEn= 0.00D+00
 Coeff-Com: -0.997D-05 0.130D-04 0.365D-04 0.269D-03 0.890D-03 0.425D-02
 Coeff-Com: -0.295D-03-0.440D-01-0.160D+00 0.176D+00 0.102D+01
 Coeff:     -0.997D-05 0.130D-04 0.365D-04 0.269D-03 0.890D-03 0.425D-02
 Coeff:     -0.295D-03-0.440D-01-0.160D+00 0.176D+00 0.102D+01
 Gap=     0.055 Goal=   None    Shift=    0.000
 Gap=     0.055 Goal=   None    Shift=    0.000
 RMSDP=2.38D-08 MaxDP=2.63D-06 DE=-9.09D-13 OVMax= 3.85D-06

 Cycle  12  Pass 1  IDiag  1:
 RMSU=  4.98D-09    CP:  9.83D-01  3.00D+00  1.10D+00  6.32D-01  5.23D-01
                    CP:  1.16D+00  8.83D-01  1.13D+00  1.23D+00  1.71D+00
                    CP:  1.99D+00
 E= -1136.08793743242     Delta-E=       -0.000000000004 Rises=F Damp=F
 DIIS: error= 3.11D-08 at cycle  12 NSaved=  12.
 NSaved=12 IEnMin=12 EnMin= -1136.08793743242     IErMin=12 ErrMin= 3.11D-08
 ErrMax= 3.11D-08  0.00D+00 EMaxC= 1.00D-01 BMatC= 9.76D-14 BMatP= 4.51D-13
 IDIUse=1 WtCom= 1.00D+00 WtEn= 0.00D+00
 Coeff-Com:  0.358D-06-0.529D-06-0.102D-04-0.447D-04-0.769D-04 0.340D-03
 Coeff-Com:  0.212D-02 0.640D-02 0.450D-02-0.364D+00-0.112D+00 0.146D+01
 Coeff:      0.358D-06-0.529D-06-0.102D-04-0.447D-04-0.769D-04 0.340D-03
 Coeff:      0.212D-02 0.640D-02 0.450D-02-0.364D+00-0.112D+00 0.146D+01
 Gap=     0.055 Goal=   None    Shift=    0.000
 Gap=     0.055 Goal=   None    Shift=    0.000
 RMSDP=2.09D-08 MaxDP=2.37D-06 DE=-3.64D-12 OVMax= 3.56D-06

 Cycle  13  Pass 1  IDiag  1:
 RMSU=  1.86D-09    CP:  9.83D-01  3.00D+00  1.10D+00  6.32D-01  5.23D-01
                    CP:  1.16D+00  8.83D-01  1.13D+00  1.26D+00  1.95D+00
                    CP:  3.00D+00  2.23D+00
 E= -1136.08793743242     Delta-E=       -0.000000000002 Rises=F Damp=F
 DIIS: error= 5.55D-09 at cycle  13 NSaved=  13.
 NSaved=13 IEnMin=13 EnMin= -1136.08793743242     IErMin=13 ErrMin= 5.55D-09
 ErrMax= 5.55D-09  0.00D+00 EMaxC= 1.00D-01 BMatC= 5.10D-15 BMatP= 9.76D-14
 IDIUse=1 WtCom= 1.00D+00 WtEn= 0.00D+00
 Coeff-Com:  0.879D-06-0.115D-05-0.419D-05-0.307D-04-0.794D-04-0.258D-03
 Coeff-Com:  0.325D-03 0.463D-02 0.119D-01-0.724D-01-0.885D-01 0.200D+00
 Coeff-Com:  0.944D+00
 Coeff:      0.879D-06-0.115D-05-0.419D-05-0.307D-04-0.794D-04-0.258D-03
 Coeff:      0.325D-03 0.463D-02 0.119D-01-0.724D-01-0.885D-01 0.200D+00
 Coeff:      0.944D+00
 Gap=     0.055 Goal=   None    Shift=    0.000
 Gap=     0.055 Goal=   None    Shift=    0.000
 RMSDP=3.81D-09 MaxDP=3.88D-07 DE=-2.05D-12 OVMax= 5.56D-07

 SCF Done:  E(UB3LYP) =  -1136.08793743     A.U. after   13 cycles
            NFock= 13  Conv=0.38D-08     -V/T= 2.0028
 <Sx>= 0.0000 <Sy>= 0.0000 <Sz>= 0.5000 <S**2>= 0.7500 S= 0.5000
 <L.S>= 0.000000000000E+00
 KE= 1.132921147460D+03 PE=-2.995326875834D+03 EE= 5.931445925765D+02
 Annihilation of the first spin contaminant:
 S**2 before annihilation     0.7500,   after     0.7500
 Leave Link  502 at Thu Nov 23 12:38:40 2023, MaxMem=   104857600 cpu:             344.1 elap:             434.1
 (Enter /home/sekinelabo/g16/l601.exe)
 Copying SCF densities to generalized density rwf, IOpCl= 1 IROHF=0.

 **********************************************************************

            Population analysis using the SCF Density.

 **********************************************************************

 Orbital symmetries:
 Alpha Orbitals:
       Occupied  (A) (A) (A) (A) (A) (A) (A) (A) (A) (A) (A) (A)
                 (A) (A) (A) (A) (A) (A) (A) (A) (A) (A) (A) (A)
                 (A) (A) (A) (A) (A) (A) (A) (A) (A) (A) (A) (A)
                 (A) (A) (A)
       Virtual   (A) (A) (A) (A) (A) (A) (A) (A) (A) (A) (A) (A)
                 (A) (A) (A) (A) (A) (A) (A) (A) (A) (A) (A) (A)
                 (A) (A) (A) (A) (A) (A) (A) (A) (A) (A) (A) (A)
                 (A) (A) (A) (A) (A) (A) (A) (A) (A) (A) (A) (A)
                 (A) (A) (A) (A) (A) (A) (A) (A) (A) (A) (A) (A)
                 (A) (A) (A) (A) (A) (A) (A) (A) (A) (A) (A) (A)
                 (A) (A) (A) (A) (A) (A) (A) (A) (A) (A) (A) (A)
                 (A) (A) (A) (A) (A) (A) (A) (A) (A) (A) (A) (A)
                 (A) (A) (A) (A) (A) (A) (A) (A) (A) (A) (A) (A)
                 (A) (A) (A) (A) (A) (A) (A) (A) (A) (A) (A) (A)
                 (A) (A) (A) (A) (A) (A) (A) (A) (A) (A) (A) (A)
                 (A) (A) (A) (A) (A) (A) (A) (A) (A) (A) (A) (A)
                 (A) (A) (A) (A) (A) (A) (A) (A) (A) (A) (A) (A)
                 (A) (A) (A) (A) (A) (A) (A) (A) (A) (A) (A) (A)
                 (A) (A) (A)
 Beta  Orbitals:
       Occupied  (A) (A) (A) (A) (A) (A) (A) (A) (A) (A) (A) (A)
                 (A) (A) (A) (A) (A) (A) (A) (A) (A) (A) (A) (A)
                 (A) (A) (A) (A) (A) (A) (A) (A) (A) (A) (A) (A)
                 (A) (A)
       Virtual   (A) (A) (A) (A) (A) (A) (A) (A) (A) (A) (A) (A)
                 (A) (A) (A) (A) (A) (A) (A) (A) (A) (A) (A) (A)
                 (A) (A) (A) (A) (A) (A) (A) (A) (A) (A) (A) (A)
                 (A) (A) (A) (A) (A) (A) (A) (A) (A) (A) (A) (A)
                 (A) (A) (A) (A) (A) (A) (A) (A) (A) (A) (A) (A)
                 (A) (A) (A) (A) (A) (A) (A) (A) (A) (A) (A) (A)
                 (A) (A) (A) (A) (A) (A) (A) (A) (A) (A) (A) (A)
                 (A) (A) (A) (A) (A) (A) (A) (A) (A) (A) (A) (A)
                 (A) (A) (A) (A) (A) (A) (A) (A) (A) (A) (A) (A)
                 (A) (A) (A) (A) (A) (A) (A) (A) (A) (A) (A) (A)
                 (A) (A) (A) (A) (A) (A) (A) (A) (A) (A) (A) (A)
                 (A) (A) (A) (A) (A) (A) (A) (A) (A) (A) (A) (A)
                 (A) (A) (A) (A) (A) (A) (A) (A) (A) (A) (A) (A)
                 (A) (A) (A) (A) (A) (A) (A) (A) (A) (A) (A) (A)
                 (A) (A) (A) (A)
 The electronic state is 2-A.
 Alpha  occ. eigenvalues --  -38.45768 -38.44822 -38.44319 -38.44211 -38.44210
 Alpha  occ. eigenvalues --  -38.43875 -38.43728  -2.21553  -2.20619  -2.20134
 Alpha  occ. eigenvalues --   -2.20072  -2.20024  -2.19671  -2.19529  -1.15165
 Alpha  occ. eigenvalues --   -1.15165  -1.15165  -1.14345  -1.14267  -1.14263
 Alpha  occ. eigenvalues --   -1.14049  -1.13785  -1.13782  -1.13772  -1.13708
 Alpha  occ. eigenvalues --   -1.13708  -1.13638  -1.13638  -1.13514  -1.13420
 Alpha  occ. eigenvalues --   -1.13322  -1.13322  -1.13190  -1.13178  -1.13128
 Alpha  occ. eigenvalues --   -0.14366  -0.13396  -0.12795  -0.12254
 Alpha virt. eigenvalues --   -0.06707  -0.05172  -0.04314  -0.03030  -0.02805
 Alpha virt. eigenvalues --   -0.02583  -0.02510  -0.02102  -0.02072  -0.01918
 Alpha virt. eigenvalues --   -0.01652  -0.01235  -0.01001  -0.00740   0.00187
 Alpha virt. eigenvalues --    0.00302   0.00309   0.00563   0.00711   0.00749
 Alpha virt. eigenvalues --    0.00792   0.00888   0.00940   0.01083   0.01109
 Alpha virt. eigenvalues --    0.01215   0.01235   0.01441   0.01537   0.01573
 Alpha virt. eigenvalues --    0.01596   0.01646   0.01740   0.01870   0.01942
 Alpha virt. eigenvalues --    0.02056   0.02281   0.02319   0.02354   0.02631
 Alpha virt. eigenvalues --    0.02661   0.02727   0.02820   0.03009   0.03060
 Alpha virt. eigenvalues --    0.03213   0.03269   0.03543   0.04414   0.04598
 Alpha virt. eigenvalues --    0.04660   0.05680   0.06973   0.07082   0.07137
 Alpha virt. eigenvalues --    0.07255   0.07269   0.07315   0.07591   0.07591
 Alpha virt. eigenvalues --    0.07659   0.07903   0.07927   0.08367   0.08424
 Alpha virt. eigenvalues --    0.08797   0.09100   0.09442   0.09477   0.09991
 Alpha virt. eigenvalues --    0.10317   0.10481   0.10593   0.11101   0.11264
 Alpha virt. eigenvalues --    0.11944   0.13338   0.15288   0.16025   0.16535
 Alpha virt. eigenvalues --    0.28537   0.29151   0.29877   0.29916   0.29941
 Alpha virt. eigenvalues --    0.30938   0.31979   0.32012   0.32169   0.32553
 Alpha virt. eigenvalues --    0.32570   0.32883   0.33231   0.33234   0.33240
 Alpha virt. eigenvalues --    0.33252   0.33410   0.33694   0.34126   0.36087
 Alpha virt. eigenvalues --    0.37413   0.37963   0.39062   0.39067   0.39805
 Alpha virt. eigenvalues --    0.41510   0.41843   0.41973   0.42022   0.42110
 Alpha virt. eigenvalues --    0.42308   0.42444   0.42997   0.43043   0.43095
 Alpha virt. eigenvalues --    0.43161   0.43781   0.44073   0.44111   0.44367
 Alpha virt. eigenvalues --    0.44370   0.45308   0.46186   0.47399   0.48063
 Alpha virt. eigenvalues --    0.48163   0.48996   0.49454   0.50310   0.51219
 Alpha virt. eigenvalues --    0.52508   0.52510   0.54035   0.72096   0.73742
 Alpha virt. eigenvalues --    0.81556   1.99225   2.02786   2.05138   2.07369
 Alpha virt. eigenvalues --    2.10335   2.12329   2.15248   4.41146   4.42264
 Alpha virt. eigenvalues --    4.42792   4.42794   4.43038   4.43137   4.43148
 Alpha virt. eigenvalues --    4.43214   4.43289   4.43941   4.44209   4.44368
 Alpha virt. eigenvalues --    4.45961   4.46309   4.46694   4.46907   4.47035
 Alpha virt. eigenvalues --    4.48554   4.65530   4.66845   4.75162  96.18352
 Alpha virt. eigenvalues --   96.21963  96.24797  96.27658  96.33232  96.34835
 Alpha virt. eigenvalues --   96.38119
  Beta  occ. eigenvalues --  -38.45582 -38.44822 -38.44319 -38.44211 -38.44210
  Beta  occ. eigenvalues --  -38.43875 -38.43728  -2.21207  -2.20619  -2.20134
  Beta  occ. eigenvalues --   -2.20072  -2.20024  -2.19671  -2.19529  -1.14931
  Beta  occ. eigenvalues --   -1.14931  -1.14931  -1.14345  -1.14267  -1.14263
  Beta  occ. eigenvalues --   -1.14049  -1.13785  -1.13782  -1.13772  -1.13708
  Beta  occ. eigenvalues --   -1.13708  -1.13638  -1.13638  -1.13514  -1.13420
  Beta  occ. eigenvalues --   -1.13322  -1.13322  -1.13190  -1.13178  -1.13128
  Beta  occ. eigenvalues --   -0.14366  -0.13395  -0.12254
  Beta virt. eigenvalues --   -0.06707  -0.06265  -0.05177  -0.04314  -0.03030
  Beta virt. eigenvalues --   -0.02805  -0.02518  -0.02507  -0.01652  -0.01235
  Beta virt. eigenvalues --   -0.01001  -0.00897  -0.00128  -0.00096   0.00049
  Beta virt. eigenvalues --    0.00187   0.00302   0.00563   0.00709   0.00711
  Beta virt. eigenvalues --    0.00793   0.00853   0.00940   0.00977   0.01109
  Beta virt. eigenvalues --    0.01208   0.01235   0.01317   0.01441   0.01596
  Beta virt. eigenvalues --    0.01646   0.01906   0.01942   0.02056   0.02281
  Beta virt. eigenvalues --    0.02289   0.02319   0.02323   0.02348   0.02511
  Beta virt. eigenvalues --    0.02631   0.02727   0.02775   0.02820   0.03004
  Beta virt. eigenvalues --    0.03062   0.03213   0.03269   0.03543   0.04414
  Beta virt. eigenvalues --    0.04598   0.04645   0.05680   0.06973   0.07180
  Beta virt. eigenvalues --    0.07209   0.07269   0.07315   0.07397   0.07591
  Beta virt. eigenvalues --    0.07927   0.08367   0.08636   0.08797   0.09056
  Beta virt. eigenvalues --    0.09066   0.09100   0.09179   0.09442   0.09806
  Beta virt. eigenvalues --    0.09996   0.10317   0.10593   0.10780   0.11264
  Beta virt. eigenvalues --    0.11301   0.11944   0.13338   0.15288   0.16012
  Beta virt. eigenvalues --    0.16535   0.28537   0.29151   0.29877   0.29916
  Beta virt. eigenvalues --    0.29942   0.30938   0.31979   0.32014   0.32169
  Beta virt. eigenvalues --    0.32553   0.32570   0.32932   0.33694   0.34126
  Beta virt. eigenvalues --    0.35331   0.35333   0.35342   0.35353   0.35440
  Beta virt. eigenvalues --    0.36087   0.37413   0.37963   0.39067   0.39068
  Beta virt. eigenvalues --    0.39805   0.41510   0.41859   0.42110   0.42444
  Beta virt. eigenvalues --    0.42913   0.43043   0.43070   0.43095   0.43473
  Beta virt. eigenvalues --    0.43486   0.43621   0.43781   0.44073   0.44121
  Beta virt. eigenvalues --    0.44367   0.44485   0.45308   0.46186   0.47399
  Beta virt. eigenvalues --    0.48061   0.48163   0.48996   0.49454   0.50310
  Beta virt. eigenvalues --    0.51219   0.52509   0.52510   0.54035   0.72096
  Beta virt. eigenvalues --    0.73742   0.81556   2.00096   2.02786   2.05141
  Beta virt. eigenvalues --    2.07369   2.10334   2.12329   2.15248   4.41146
  Beta virt. eigenvalues --    4.42264   4.42948   4.42984   4.43214   4.43214
  Beta virt. eigenvalues --    4.43265   4.43271   4.43465   4.43941   4.44209
  Beta virt. eigenvalues --    4.44368   4.45961   4.46309   4.46694   4.46907
  Beta virt. eigenvalues --    4.47036   4.48554   4.65530   4.66845   4.75162
  Beta virt. eigenvalues --   96.18620  96.21963  96.24798  96.27658  96.33232
  Beta virt. eigenvalues --   96.34835  96.38119
          Condensed to atoms (all electrons):
               1          2          3          4          5          6
     1  Na  11.006575   0.000000   0.000000   0.000000   0.000000   0.001984
     2  Na   0.000000  10.680297   0.413385  -0.083507  -0.062981   0.000000
     3  Na   0.000000   0.413385  10.749623  -0.026357  -0.124361   0.000000
     4  Na   0.000000  -0.083507  -0.026357  11.204044   0.266983   0.000000
     5  Na   0.000000  -0.062981  -0.124361   0.266983  10.599713   0.000000
     6  Na   0.001984   0.000000   0.000000   0.000000   0.000000  10.721960
     7  Na  -0.008953   0.000000   0.000000   0.000000   0.000000   0.354905
               7
     1  Na  -0.008953
     2  Na   0.000000
     3  Na   0.000000
     4  Na   0.000000
     5  Na   0.000000
     6  Na   0.354905
     7  Na  10.575595
          Atomic-Atomic Spin Densities.
               1          2          3          4          5          6
     1  Na   1.005771   0.000000   0.000000   0.000000   0.000000   0.003982
     2  Na   0.000000  -0.000000  -0.000000   0.000000   0.000000   0.000000
     3  Na   0.000000  -0.000000   0.000000  -0.000000   0.000000   0.000000
     4  Na   0.000000   0.000000  -0.000000   0.000000  -0.000000   0.000000
     5  Na   0.000000   0.000000   0.000000  -0.000000  -0.000000   0.000000
     6  Na   0.003982   0.000000   0.000000   0.000000   0.000000   0.000580
     7  Na  -0.007100   0.000000   0.000000   0.000000   0.000000  -0.006696
               7
     1  Na  -0.007100
     2  Na   0.000000
     3  Na   0.000000
     4  Na   0.000000
     5  Na   0.000000
     6  Na  -0.006696
     7  Na   0.013276
 Mulliken charges and spin densities:
               1          2
     1  Na   0.000395   1.002653
     2  Na   0.052807  -0.000000
     3  Na  -0.012290   0.000000
     4  Na  -0.361163   0.000000
     5  Na   0.320646  -0.000000
     6  Na  -0.078849  -0.002134
     7  Na   0.078454  -0.000519
 Sum of Mulliken charges =  -0.00000   1.00000
 Mulliken charges and spin densities with hydrogens summed into heavy atoms:
               1          2
     1  Na   0.000395   1.002653
     2  Na   0.052807  -0.000000
     3  Na  -0.012290   0.000000
     4  Na  -0.361163   0.000000
     5  Na   0.320646  -0.000000
     6  Na  -0.078849  -0.002134
     7  Na   0.078454  -0.000519
 Electronic spatial extent (au):  <R**2>=         623196.6968
 Charge=             -0.0000 electrons
 Dipole moment (field-independent basis, Debye):
    X=             -0.8584    Y=              0.4125    Z=              0.5668  Tot=              1.1082
 Quadrupole moment (field-independent basis, Debye-Ang):
   XX=             -0.5316   YY=            -66.9827   ZZ=            -70.1259
   XY=            -10.4397   XZ=            -30.1581   YZ=             -3.2919
 Traceless Quadrupole moment (field-independent basis, Debye-Ang):
   XX=             45.3485   YY=            -21.1026   ZZ=            -24.2459
   XY=            -10.4397   XZ=            -30.1581   YZ=             -3.2919
 Octapole moment (field-independent basis, Debye-Ang**2):
  XXX=          -4719.7095  YYY=            -82.7515  ZZZ=             19.2020  XYY=           -277.0340
  XXY=            756.0773  XXZ=            984.3642  XZZ=            -61.0740  YZZ=             -2.7453
  YYZ=              9.8048  XYZ=           -124.2148
 Hexadecapole moment (field-independent basis, Debye-Ang**3):
 XXXX=        -687037.4517 YYYY=          -6071.1469 ZZZZ=           -664.7057 XXXY=          11374.6468
 XXXZ=         -95619.2990 YYYX=            802.3483 YYYZ=            -64.2886 ZZZX=           -434.0250
 ZZZY=             -4.6066 XXYY=        -157349.2114 XXZZ=        -157680.2838 YYZZ=          -1132.3131
 XXYZ=          -6385.5630 YYXZ=           1469.2109 ZZXY=          -1306.0757
 N-N= 1.331731983650D+02 E-N=-2.995326875740D+03  KE= 1.132921147460D+03
                          Isotropic Fermi Contact Couplings
        Atom                 a.u.       MegaHertz       Gauss      10(-4) cm-1
     1  Na(23)             0.79346     938.68575     334.94642     313.11186
     2  Na(23)            -0.00000      -0.00000      -0.00000      -0.00000
     3  Na(23)             0.00000       0.00000       0.00000       0.00000
     4  Na(23)             0.00000       0.00000       0.00000       0.00000
     5  Na(23)             0.00000       0.00000       0.00000       0.00000
     6  Na(23)            -0.00011      -0.12893      -0.04601      -0.04301
     7  Na(23)             0.00077       0.90748       0.32381       0.30270
 --------------------------------------------------------
       Center         ----  Spin Dipole Couplings  ----
                      3XX-RR        3YY-RR        3ZZ-RR
 --------------------------------------------------------
     1   Atom       -0.000004      0.000007     -0.000002
     2   Atom        0.000000     -0.000000     -0.000000
     3   Atom        0.000000     -0.000000     -0.000000
     4   Atom        0.000000     -0.000000     -0.000000
     5   Atom        0.000000     -0.000000     -0.000000
     6   Atom       -0.000203      0.000410     -0.000207
     7   Atom       -0.000105      0.000208     -0.000103
 --------------------------------------------------------
                        XY            XZ            YZ
 --------------------------------------------------------
     1   Atom        0.000010      0.000000     -0.000009
     2   Atom        0.000000     -0.000000     -0.000000
     3   Atom        0.000000     -0.000000     -0.000000
     4   Atom        0.000000      0.000000      0.000000
     5   Atom        0.000000      0.000000      0.000000
     6   Atom        0.000015     -0.000029     -0.000073
     7   Atom        0.000028     -0.000016     -0.000054
 --------------------------------------------------------


 ---------------------------------------------------------------------------------
              Anisotropic Spin Dipole Couplings in Principal Axis System
 ---------------------------------------------------------------------------------

       Atom             a.u.   MegaHertz   Gauss  10(-4) cm-1        Axes

              Baa    -0.0000    -0.002    -0.001    -0.001  0.6708 -0.5631 -0.4826
     1 Na(23) Bbb    -0.0000    -0.000    -0.000    -0.000  0.6229  0.0748  0.7787
              Bcc     0.0000     0.002     0.001     0.001  0.4024  0.8230 -0.4009
 
              Baa    -0.0000    -0.000    -0.000    -0.000  0.0153  0.2123  0.9771
     2 Na(23) Bbb    -0.0000    -0.000    -0.000    -0.000 -0.0474  0.9763 -0.2114
              Bcc     0.0000     0.000     0.000     0.000  0.9988  0.0431 -0.0250
 
              Baa    -0.0000    -0.000    -0.000    -0.000 -0.0034  0.2133  0.9770
     3 Na(23) Bbb    -0.0000    -0.000    -0.000    -0.000 -0.0416  0.9761 -0.2132
              Bcc     0.0000     0.000     0.000     0.000  0.9991  0.0414 -0.0055
 
              Baa    -0.0000    -0.000    -0.000    -0.000 -0.0182  0.2147  0.9765
     4 Na(23) Bbb    -0.0000    -0.000    -0.000    -0.000 -0.0783  0.9734 -0.2154
              Bcc     0.0000     0.000     0.000     0.000  0.9968  0.0804  0.0009
 
              Baa    -0.0000    -0.000    -0.000    -0.000 -0.0260  0.2171  0.9758
     5 Na(23) Bbb    -0.0000    -0.000    -0.000    -0.000 -0.1061  0.9700 -0.2186
              Bcc     0.0000     0.000     0.000     0.000  0.9940  0.1093  0.0022
 
              Baa    -0.0002    -0.034    -0.012    -0.011  0.6235  0.0734  0.7784
     6 Na(23) Bbb    -0.0002    -0.026    -0.009    -0.009  0.7813 -0.0953 -0.6169
              Bcc     0.0004     0.059     0.021     0.020  0.0289  0.9927 -0.1168
 
              Baa    -0.0001    -0.017    -0.006    -0.006  0.6240  0.0733  0.7780
     7 Na(23) Bbb    -0.0001    -0.014    -0.005    -0.005  0.7758 -0.1771 -0.6056
              Bcc     0.0002     0.031     0.011     0.010  0.0933  0.9815 -0.1674
 

 ---------------------------------------------------------------------------------

 No NMR shielding tensors so no spin-rotation constants.
 Leave Link  601 at Thu Nov 23 12:39:03 2023, MaxMem=   104857600 cpu:              17.8 elap:              22.4
 (Enter /home/sekinelabo/g16/l701.exe)
 ... and contract with generalized density number  0.
 Compute integral first derivatives.
 Leave Link  701 at Thu Nov 23 12:39:12 2023, MaxMem=   104857600 cpu:               7.1 elap:               9.3
 (Enter /home/sekinelabo/g16/l702.exe)
 L702 exits ... SP integral derivatives will be done elsewhere.
 Leave Link  702 at Thu Nov 23 12:39:13 2023, MaxMem=   104857600 cpu:               0.6 elap:               0.9
 (Enter /home/sekinelabo/g16/l703.exe)
 Integral derivatives from FoFJK, PRISM(SPDF).
 Compute integral first derivatives, UseDBF=F ICtDFT=           0.
 Calling FoFJK, ICntrl=      2127 FMM=F ISym2X=0 I1Cent= 0 IOpClX= 1 NMat=1 NMatS=1 NMatT=0.
 FoFJK:  IHMeth= 1 ICntrl=    2127 DoSepK=F KAlg= 0 I1Cent=           0 FoldK=F
 IRaf=         0 NMat=       1 IRICut=       1 DoRegI=T DoRafI=F ISym2E= 0 IDoP0=0 IntGTp=1.
 FoFCou: FMM=F IPFlag=           0 FMFlag=      100000 FMFlg1=         800
         NFxFlg=           0 DoJE=F BraDBF=F KetDBF=F FulRan=T
         wScrn=  0.000000 ICntrl=      2127 IOpCl=  1 I1Cent=           0 NGrid=           0
         NMat0=    1 NMatS0=      1 NMatT0=    0 NMatD0=    1 NMtDS0=    0 NMtDT0=    0
 Symmetry not used in FoFCou.
 Leave Link  703 at Thu Nov 23 12:39:42 2023, MaxMem=   104857600 cpu:              22.8 elap:              29.2
 (Enter /home/sekinelabo/g16/l716.exe)
 Dipole        =-3.37709116D-01 1.62282354D-01 2.22995530D-01
 ***** Axes restored to original set *****
 -------------------------------------------------------------------
 Center     Atomic                   Forces (Hartrees/Bohr)
 Number     Number              X              Y              Z
 -------------------------------------------------------------------
      1       11          -0.000003921    0.000001026    0.000000287
      2       11           0.000188693    0.001758210   -0.001874464
      3       11          -0.000519607   -0.001931307    0.002313281
      4       11           0.001995465    0.000102712   -0.000271103
      5       11          -0.001664552    0.000070386   -0.000167713
      6       11           0.002817801   -0.005583777    0.005695018
      7       11          -0.002813879    0.005582751   -0.005695305
 -------------------------------------------------------------------
 Cartesian Forces:  Max     0.005695305 RMS     0.002810989
 Z-matrix is all fixed cartesians, so copy forces.
 Force constants in Cartesian coordinates: 
                1             2             3             4             5 
      1  0.100000D+01
      2  0.000000D+00  0.100000D+01
      3  0.000000D+00  0.000000D+00  0.100000D+01
      4  0.000000D+00  0.000000D+00  0.000000D+00  0.757429D-02
      5  0.000000D+00  0.000000D+00  0.000000D+00 -0.235845D-04  0.173583D-01
      6  0.000000D+00  0.000000D+00  0.000000D+00 -0.336920D-02 -0.193838D-01
      7  0.000000D+00  0.000000D+00  0.000000D+00 -0.876012D-02  0.346768D-03
      8  0.000000D+00  0.000000D+00  0.000000D+00  0.395949D-02 -0.185313D-01
      9  0.000000D+00  0.000000D+00  0.000000D+00 -0.545709D-03  0.204697D-01
     10  0.000000D+00  0.000000D+00  0.000000D+00  0.119023D-02 -0.312297D-03
     11  0.000000D+00  0.000000D+00  0.000000D+00 -0.390255D-02  0.125560D-02
     12  0.000000D+00  0.000000D+00  0.000000D+00  0.392036D-02 -0.107239D-02
     13  0.000000D+00  0.000000D+00  0.000000D+00 -0.439484D-05 -0.108865D-04
     14  0.000000D+00  0.000000D+00  0.000000D+00 -0.333514D-04 -0.826151D-04
     15  0.000000D+00  0.000000D+00  0.000000D+00 -0.545520D-05 -0.135131D-04
     16  0.000000D+00  0.000000D+00  0.000000D+00  0.000000D+00  0.000000D+00
     17  0.000000D+00  0.000000D+00  0.000000D+00  0.000000D+00  0.000000D+00
     18  0.000000D+00  0.000000D+00  0.000000D+00  0.000000D+00  0.000000D+00
     19  0.000000D+00  0.000000D+00  0.000000D+00  0.000000D+00  0.000000D+00
     20  0.000000D+00  0.000000D+00  0.000000D+00  0.000000D+00  0.000000D+00
     21  0.000000D+00  0.000000D+00  0.000000D+00  0.000000D+00  0.000000D+00
                6             7             8             9            10 
      6  0.233671D-01
      7  0.352188D-02  0.199549D-01
      8  0.187919D-01 -0.585177D-02  0.221368D-01
      9 -0.228470D-01 -0.110955D-02 -0.225164D-01  0.294880D-01
     10 -0.142986D-03 -0.105302D-01  0.147196D-02  0.351206D-02  0.411171D-01
     11  0.665562D-03  0.565832D-02 -0.392293D-02  0.251670D-02 -0.699886D-02
     12 -0.508122D-03 -0.422490D-02  0.475203D-02 -0.116829D-01  0.699506D-02
     13 -0.969804D-05 -0.664573D-03  0.420328D-03 -0.185681D-02 -0.317771D-01
     14 -0.735962D-04 -0.153316D-03  0.317467D-03 -0.470008D-03  0.583920D-02
     15 -0.120379D-04  0.181256D-02 -0.102747D-02  0.504180D-02 -0.103641D-01
     16  0.000000D+00  0.000000D+00  0.000000D+00  0.000000D+00  0.000000D+00
     17  0.000000D+00  0.000000D+00  0.000000D+00  0.000000D+00  0.000000D+00
     18  0.000000D+00  0.000000D+00  0.000000D+00  0.000000D+00  0.000000D+00
     19  0.000000D+00  0.000000D+00  0.000000D+00  0.000000D+00  0.000000D+00
     20  0.000000D+00  0.000000D+00  0.000000D+00  0.000000D+00  0.000000D+00
     21  0.000000D+00  0.000000D+00  0.000000D+00  0.000000D+00  0.000000D+00
               11            12            13            14            15 
     11  0.428205D-02
     12 -0.705416D-02  0.278063D-01
     13  0.524309D-02 -0.669053D-02  0.324461D-01
     14 -0.161472D-02  0.337452D-02 -0.565253D-02  0.137987D-02
     15  0.387190D-02 -0.156153D-01  0.855704D-02 -0.283091D-02  0.105855D-01
     16  0.000000D+00  0.000000D+00  0.000000D+00  0.000000D+00  0.000000D+00
     17  0.000000D+00  0.000000D+00  0.000000D+00  0.000000D+00  0.000000D+00
     18  0.000000D+00  0.000000D+00  0.000000D+00  0.000000D+00  0.000000D+00
     19  0.000000D+00  0.000000D+00  0.000000D+00  0.000000D+00  0.000000D+00
     20  0.000000D+00  0.000000D+00  0.000000D+00  0.000000D+00  0.000000D+00
     21  0.000000D+00  0.000000D+00  0.000000D+00  0.000000D+00  0.000000D+00
               16            17            18            19            20 
     16  0.626638D-02
     17 -0.124333D-01  0.246693D-01
     18  0.126856D-01 -0.251699D-01  0.256808D-01
     19 -0.626638D-02  0.124333D-01 -0.126856D-01  0.626638D-02
     20  0.124333D-01 -0.246693D-01  0.251699D-01 -0.124333D-01  0.246693D-01
     21 -0.126856D-01  0.251699D-01 -0.256808D-01  0.126856D-01 -0.251699D-01
               21 
     21  0.256808D-01
 Leave Link  716 at Thu Nov 23 12:39:44 2023, MaxMem=   104857600 cpu:               0.7 elap:               1.0
 (Enter /home/sekinelabo/g16/l103.exe)

 GradGradGradGradGradGradGradGradGradGradGradGradGradGradGradGradGradGrad
 Berny optimization.
 Search for a local minimum.
 Step number   1 out of a maximum of    2
 All quantities printed in internal units (Hartrees-Bohrs-Radians)
 Second derivative matrix not updated -- first step.
 ITU=  0
     Eigenvalues ---   -0.00000  -0.00000   0.00000   0.00000   0.00000
     Eigenvalues ---    0.00093   0.00693   0.02755   0.03507   0.07920
     Eigenvalues ---    0.08782   0.11323   0.23180   0.66431   0.85714
 Eigenvalue     1 is  -7.77D-16 should be greater than     0.000000 Eigenvector:
                          Z7        Z6        Y7        Y6        X7
   1                    0.53217  -0.51273   0.43477  -0.41618  -0.21881
                          X6        Y5        Z2        X4        Z3
   1                    0.20808  -0.01399  -0.01220   0.00574  -0.00507
 Eigenvalue     2 is  -3.33D-16 should be greater than     0.000000 Eigenvector:
                          Z5        X6        X7        Z4        Z7
   1                    0.50653  -0.35987   0.35766   0.29869  -0.29641
                          Z6        X2        Z2        Y6        Y7
   1                   -0.29616  -0.23479  -0.19745  -0.19019   0.17119
 Eigenvalue     3 is   0.00D+00 Eigenvector:
                          Z3        Y2        Y4        Z5        Y3
   1                    0.50257  -0.48705   0.43029  -0.31666   0.31634
                          Y5        Z2        Z4        X4        X3
   1                   -0.23259  -0.18221   0.10478  -0.07678   0.06390
 Eigenvalue     4 is   2.22D-16 Eigenvector:
                          Z6        Z7        X6        X7        Z5
   1                    0.44185   0.42439  -0.41729   0.38234  -0.25091
                          Z2        Y7        Z4        Y6        Z3
   1                   -0.25036   0.20620  -0.20351  -0.17899  -0.16146
 Eigenvalue     5 is   1.33D-15 Eigenvector:
                          Z2        X7        Z5        Z3        X6
   1                    0.54057   0.32649  -0.32073   0.31302  -0.25170
                          Y2        Z6        Z7        X2        X4
   1                    0.24437  -0.23920  -0.22480   0.20808  -0.18076
 Quadratic step=4.473D-01 exceeds max=3.000D-01 adjusted using Lamda=-5.256D-04.
 Angle between NR and scaled steps=   8.62 degrees.
 Angle between quadratic step and forces=  64.81 degrees.
 Linear search not attempted -- first point.
 B after Tr=     0.000000    0.000000    0.000000
         Rot=    1.000000   -0.000000    0.000000    0.000000 Ang=   0.00 deg.
 Variable       Old X    -DE/DX   Delta X   Delta X   Delta X     New X
                                 (Linear)    (Quad)   (Total)
    X1       21.80857  -0.00000   0.00000  -0.00001  -0.00001  21.80857
    Y1        2.39867   0.00000   0.00000   0.00000   0.00000   2.39867
    Z1      187.40376   0.00000   0.00000   0.00000   0.00000 187.40376
    X2       18.52234   0.00019   0.00000   0.09168   0.09168  18.61402
    Y2        5.85450   0.00176   0.00000   0.05568   0.05568   5.91018
    Z2        1.76754  -0.00187   0.00000   0.02002   0.02002   1.78756
    X3       18.08712  -0.00052   0.00000  -0.05700  -0.05700  18.03012
    Y3        2.25599  -0.00193   0.00000  -0.11157  -0.11157   2.14442
    Z3        6.00426   0.00231   0.00000  -0.05348  -0.05348   5.95078
    X4       11.05580   0.00200   0.00000   0.03490   0.03490  11.09070
    Y4        2.75252   0.00010   0.00000   0.16977   0.16977   2.92229
    Z4        8.63325  -0.00027   0.00000   0.01154   0.01154   8.64479
    X5        5.77058  -0.00166   0.00000  -0.06955  -0.06955   5.70103
    Y5        3.75211   0.00007   0.00000  -0.11384  -0.11384   3.63827
    Z5        6.77998  -0.00017   0.00000   0.02247   0.02247   6.80245
    X6        5.10819   0.00282   0.00000   0.02780   0.02780   5.13599
    Y6        6.92906  -0.00558   0.00000  -0.04947  -0.04947   6.87959
    Z6      188.38774   0.00570   0.00000   0.04791   0.04791 188.43566
    X7        3.37930  -0.00281   0.00000  -0.02782  -0.02782   3.35148
    Y7       10.35940   0.00558   0.00000   0.04943   0.04943  10.40884
    Z7      184.88778  -0.00570   0.00000  -0.04846  -0.04846 184.83932
         Item               Value     Threshold  Converged?
 Maximum Force            0.005695     0.000450     NO 
 RMS     Force            0.002811     0.000300     NO 
 Maximum Displacement     0.169769     0.001800     NO 
 RMS     Displacement     0.065473     0.001200     NO 
 Predicted change in Energy=-8.460010D-04
 GradGradGradGradGradGradGradGradGradGradGradGradGradGradGradGradGradGrad

 Leave Link  103 at Thu Nov 23 12:39:48 2023, MaxMem=   104857600 cpu:               3.8 elap:               4.6
 (Enter /home/sekinelabo/g16/l9999.exe)
 1\1\GINC-SEKINELABO-XA7R-R37\Force\UB3LYP\6-311+G(d)\Na7(2)\SEKINELABO
 \23-Nov-2023\0\\#P B3LYP/6-311+g(d) force\\DPGEN\\0,2\Na,11.5406,1.269
 32,99.1698\Na,9.8016,3.09807,0.935343\Na,9.57129,1.19382,3.17732\Na,5.
 85048,1.45657,4.56852\Na,3.05366,1.98553,3.58781\Na,2.70314,3.6667,99.
 6905\Na,1.78825,5.48196,97.8384\\Version=ES64L-G16RevB.01\State=2-A\HF
 =-1136.0879374\S2=0.750013\S2-1=0.\S2A=0.75\RMSD=3.810e-09\RMSF=2.811e
 -03\Dipole=0.2156601,0.1741593,-0.336555\Quadrupole=-16.4269888,-17.41
 82606,33.8452495,-2.5550817,-13.6253112,-19.2701311\PG=C01 [X(Na7)]\\@


          EVOLUTION
 IN THE BEGINNING GOD MADE MAN.
 HE WORKED THE DIRT WITH HIS HANDS.
 THEN GOD DECIDED TO GIVE MAN SCIENCE,
 MAN SHOULD BE USEFUL (LIKE AN APPLIANCE.)
 BUT SOON MAN'S KNOWLEDGE GREW TOO GREAT,
 TO THE HEADING SCIENCE HE COULDN'T RELATE
 SO GOD SAID "LETS HAVE DIFFERENT FIELDS,
 WE'LL DIVIDE THEM UP, SEE WHAT IT YIELDS."
 ENTER PHYSICS, CHEMISTRY, BIO
 THEY SPRANG UP AROUND THE NILE.
 BUT CHEMISTRY SURPASSED THE REST
 FAR AND AWAY IT WAS THE BEST.
 EXPERIMENT WAS GOD'S DECREE
 EXPERIMENT DID CHEMISTS WITH LOTS OF GLEE
 BUT SOON THEIR TESTS BEGAN TO BOG,
 THEY FOUND THEMSELVES DEEP IN A FOG.
 "GIVE US SOME HELP" THEY CRIED TO GOD.
 GOD LOOKED AROUND, THEN GAVE THE NOD.
 ENTER EINSTEIN, HEISENBERG, BOHR,
 REACTION PATHS WERE CLEAR ONCE MORE.
 WITH THEORISTS GOD SEND DIRECTION
 AND THEN HE STOPPED, HE'D MADE PERFECTION.
          -- THOMAS A. HOLME, 1981
 Job cpu time:       0 days  0 hours  7 minutes 30.3 seconds.
 Elapsed time:       0 days  0 hours  9 minutes 28.2 seconds.
 File lengths (MBytes):  RWF=     46 Int=      0 D2E=      0 Chk=      4 Scr=      1
 Normal termination of Gaussian 16 at Thu Nov 23 12:39:50 2023.
