 Entering Gaussian System, Link 0=g16
 Initial command:
 /home/sekinelabo/g16/l1.exe "/home/sekinelabo/g16temp/Gau-1046368.inp" -scrdir="/home/sekinelabo/g16temp/"
 Entering Link 1 = /home/sekinelabo/g16/l1.exe PID=   1046386.
  
 Copyright (c) 1988-2017, Gaussian, Inc.  All Rights Reserved.
  
 This is part of the Gaussian(R) 16 program.  It is based on
 the Gaussian(R) 09 system (copyright 2009, Gaussian, Inc.),
 the Gaussian(R) 03 system (copyright 2003, Gaussian, Inc.),
 the Gaussian(R) 98 system (copyright 1998, Gaussian, Inc.),
 the Gaussian(R) 94 system (copyright 1995, Gaussian, Inc.),
 the Gaussian 92(TM) system (copyright 1992, Gaussian, Inc.),
 the Gaussian 90(TM) system (copyright 1990, Gaussian, Inc.),
 the Gaussian 88(TM) system (copyright 1988, Gaussian, Inc.),
 the Gaussian 86(TM) system (copyright 1986, Carnegie Mellon
 University), and the Gaussian 82(TM) system (copyright 1983,
 Carnegie Mellon University). Gaussian is a federally registered
 trademark of Gaussian, Inc.
  
 This software contains proprietary and confidential information,
 including trade secrets, belonging to Gaussian, Inc.
  
 This software is provided under written license and may be
 used, copied, transmitted, or stored only in accord with that
 written license.
  
 The following legend is applicable only to US Government
 contracts under FAR:
  
                    RESTRICTED RIGHTS LEGEND
  
 Use, reproduction and disclosure by the US Government is
 subject to restrictions as set forth in subparagraphs (a)
 and (c) of the Commercial Computer Software - Restricted
 Rights clause in FAR 52.227-19.
  
 Gaussian, Inc.
 340 Quinnipiac St., Bldg. 40, Wallingford CT 06492
  
  
 ---------------------------------------------------------------
 Warning -- This program may not be used in any manner that
 competes with the business of Gaussian, Inc. or will provide
 assistance to any competitor of Gaussian, Inc.  The licensee
 of this program is prohibited from giving any competitor of
 Gaussian, Inc. access to this program.  By using this program,
 the user acknowledges that Gaussian, Inc. is engaged in the
 business of creating and licensing software in the field of
 computational chemistry and represents and warrants to the
 licensee that it is not a competitor of Gaussian, Inc. and that
 it will not use this program in any manner prohibited above.
 ---------------------------------------------------------------
  

 Cite this work as:
 Gaussian 16, Revision B.01,
 M. J. Frisch, G. W. Trucks, H. B. Schlegel, G. E. Scuseria, 
 M. A. Robb, J. R. Cheeseman, G. Scalmani, V. Barone, 
 G. A. Petersson, H. Nakatsuji, X. Li, M. Caricato, A. V. Marenich, 
 J. Bloino, B. G. Janesko, R. Gomperts, B. Mennucci, H. P. Hratchian, 
 J. V. Ortiz, A. F. Izmaylov, J. L. Sonnenberg, D. Williams-Young, 
 F. Ding, F. Lipparini, F. Egidi, J. Goings, B. Peng, A. Petrone, 
 T. Henderson, D. Ranasinghe, V. G. Zakrzewski, J. Gao, N. Rega, 
 G. Zheng, W. Liang, M. Hada, M. Ehara, K. Toyota, R. Fukuda, 
 J. Hasegawa, M. Ishida, T. Nakajima, Y. Honda, O. Kitao, H. Nakai, 
 T. Vreven, K. Throssell, J. A. Montgomery, Jr., J. E. Peralta, 
 F. Ogliaro, M. J. Bearpark, J. J. Heyd, E. N. Brothers, K. N. Kudin, 
 V. N. Staroverov, T. A. Keith, R. Kobayashi, J. Normand, 
 K. Raghavachari, A. P. Rendell, J. C. Burant, S. S. Iyengar, 
 J. Tomasi, M. Cossi, J. M. Millam, M. Klene, C. Adamo, R. Cammi, 
 J. W. Ochterski, R. L. Martin, K. Morokuma, O. Farkas, 
 J. B. Foresman, and D. J. Fox, Gaussian, Inc., Wallingford CT, 2016.
 
 ******************************************
 Gaussian 16:  ES64L-G16RevB.01 20-Dec-2017
                23-Nov-2023 
 ******************************************
 %nprocshared=14
 Will use up to   14 processors via shared memory.
 -------------------------
 #P B3LYP/6-311+g(d) force
 -------------------------
 1/10=7,30=1,38=1/1,3;
 2/12=2,17=6,18=5,40=1/2;
 3/5=4,6=6,7=11,11=2,25=1,30=1,71=1,74=-5/1,2,3;
 4//1;
 5/5=2,38=5/2;
 6/7=2,8=2,9=2,10=2,28=1/1;
 7/29=1/1,2,3,16;
 1/10=7,30=1/3;
 99//99;
 Leave Link    1 at Thu Nov 23 12:30:20 2023, MaxMem=           0 cpu:               0.4 elap:               0.5
 (Enter /home/sekinelabo/g16/l101.exe)
 -----
 DPGEN
 -----
 Symbolic Z-matrix:
 Charge =  0 Multiplicity = 2
 Na                    9.13274   0.13283   2.03469 
 Na                    11.4466   2.17215   0.91397 
 Na                    9.4628    4.4053    0.24355 
 Na                    7.08933   4.75124   2.28199 
 Na                    5.02724   2.42698   1.72205 
 Na                    2.44868   1.73219   0.11351 
 Na                    99.7016   2.53127   1.65792 
 
 ITRead=  0  0  0  0  0  0  0
 MicOpt= -1 -1 -1 -1 -1 -1 -1
 NAtoms=      7 NQM=        7 NQMF=       0 NMMI=      0 NMMIF=      0
                NMic=       0 NMicF=      0.
                    Isotopes and Nuclear Properties:
 (Nuclear quadrupole moments (NQMom) in fm**2, nuclear magnetic moments (NMagM)
  in nuclear magnetons)

  Atom         1           2           3           4           5           6           7
 IAtWgt=          23          23          23          23          23          23          23
 AtmWgt=  22.9897697  22.9897697  22.9897697  22.9897697  22.9897697  22.9897697  22.9897697
 NucSpn=           3           3           3           3           3           3           3
 AtZEff=  -0.0000000  -0.0000000  -0.0000000  -0.0000000  -0.0000000  -0.0000000  -0.0000000
 NQMom=   10.4000000  10.4000000  10.4000000  10.4000000  10.4000000  10.4000000  10.4000000
 NMagM=    2.2175200   2.2175200   2.2175200   2.2175200   2.2175200   2.2175200   2.2175200
 AtZNuc=  11.0000000  11.0000000  11.0000000  11.0000000  11.0000000  11.0000000  11.0000000
 Leave Link  101 at Thu Nov 23 12:30:23 2023, MaxMem=   104857600 cpu:               2.4 elap:               2.9
 (Enter /home/sekinelabo/g16/l103.exe)

 GradGradGradGradGradGradGradGradGradGradGradGradGradGradGradGradGradGrad
 Berny optimization.
 Initialization pass.
 Trust Radius=3.00D-01 FncErr=1.00D-07 GrdErr=1.00D-07 EigMax=2.50D+02 EigMin=1.00D-04
 Number of steps in this run=      2 maximum allowed number of steps=      2.
 GradGradGradGradGradGradGradGradGradGradGradGradGradGradGradGradGradGrad

 Leave Link  103 at Thu Nov 23 12:30:24 2023, MaxMem=   104857600 cpu:               0.4 elap:               0.5
 (Enter /home/sekinelabo/g16/l202.exe)
                          Input orientation:                          
 ---------------------------------------------------------------------
 Center     Atomic      Atomic             Coordinates (Angstroms)
 Number     Number       Type             X           Y           Z
 ---------------------------------------------------------------------
      1         11           0        9.132740    0.132832    2.034690
      2         11           0       11.446600    2.172150    0.913970
      3         11           0        9.462800    4.405300    0.243554
      4         11           0        7.089330    4.751240    2.281990
      5         11           0        5.027240    2.426980    1.722050
      6         11           0        2.448680    1.732190    0.113512
      7         11           0       99.701599    2.531270    1.657920
 ---------------------------------------------------------------------
                    Distance matrix (angstroms):
                    1          2          3          4          5
     1  Na   0.000000
     2  Na   3.281582   0.000000
     3  Na   4.644469   3.061352   0.000000
     4  Na   5.056320   5.244901   3.147738   0.000000
     5  Na   4.713384   6.475038   5.076799   3.157203   0.000000
     6  Na   7.136213   9.044162   7.507350   5.945805   3.117547
     7  Na  90.601394  88.258865  90.269337  92.640974  94.674438
                    6          7
     6  Na   0.000000
     7  Na  97.268463   0.000000
 Stoichiometry    Na7(2)
 Framework group  C1[X(Na7)]
 Deg. of freedom    15
 Full point group                 C1      NOp   1
 Largest Abelian subgroup         C1      NOp   1
 Largest concise Abelian subgroup C1      NOp   1
                         Standard orientation:                         
 ---------------------------------------------------------------------
 Center     Atomic      Atomic             Coordinates (Angstroms)
 Number     Number       Type             X           Y           Z
 ---------------------------------------------------------------------
      1         11           0      -11.477574    2.501191   -0.696947
      2         11           0       -9.170469    0.410714    0.340337
      3         11           0      -11.158814   -1.849375    0.897437
      4         11           0      -13.522206   -2.099386   -1.166571
      5         11           0      -15.585828    0.198252   -0.510633
      6         11           0      -18.172056    0.820323    1.115266
      7         11           0       79.086946    0.018281    0.021110
 ---------------------------------------------------------------------
 Rotational constants (GHZ):           1.1426941           0.0029887           0.0029843
 Leave Link  202 at Thu Nov 23 12:30:25 2023, MaxMem=   104857600 cpu:               0.9 elap:               1.1
 (Enter /home/sekinelabo/g16/l301.exe)
 Standard basis: 6-311+G(d) (5D, 7F)
 Ernie: Thresh=  0.10000D-02 Tol=  0.10000D-05 Strict=F.
 There are   217 symmetry adapted cartesian basis functions of A   symmetry.
 There are   210 symmetry adapted basis functions of A   symmetry.
   210 basis functions,   350 primitive gaussians,   217 cartesian basis functions
    39 alpha electrons       38 beta electrons
       nuclear repulsion energy       215.8506860653 Hartrees.
 IExCor=  402 DFT=T Ex+Corr=B3LYP ExCW=0 ScaHFX=  0.200000
 ScaDFX=  0.800000  0.720000  1.000000  0.810000 ScalE2=  1.000000  1.000000
 IRadAn=      5 IRanWt=     -1 IRanGd=            0 ICorTp=0 IEmpDi=  4
 NAtoms=    7 NActive=    7 NUniq=    7 SFac= 1.00D+00 NAtFMM=   60 NAOKFM=F Big=F
 Integral buffers will be    131072 words long.
 Raffenetti 2 integral format.
 Two-electron integral symmetry is turned on.
 Leave Link  301 at Thu Nov 23 12:30:26 2023, MaxMem=   104857600 cpu:               0.7 elap:               0.8
 (Enter /home/sekinelabo/g16/l302.exe)
 NPDir=0 NMtPBC=     1 NCelOv=     1 NCel=       1 NClECP=     1 NCelD=      1
         NCelK=      1 NCelE2=     1 NClLst=     1 CellRange=     0.0.
 One-electron integrals computed using PRISM.
 One-electron integral symmetry used in STVInt
 NBasis=   210 RedAO= T EigKep=  8.40D-06  NBF=   210
 NBsUse=   210 1.00D-06 EigRej= -1.00D+00 NBFU=   210
 Precomputing XC quadrature grid using
 IXCGrd= 4 IRadAn=           5 IRanWt=          -1 IRanGd=           0 AccXCQ= 0.00D+00.
 Generated NRdTot=       0 NPtTot=           0 NUsed=           0 NTot=          32
 NSgBfM=   175   175   175   175   175 MxSgAt=     7 MxSgA2=     6.
 Leave Link  302 at Thu Nov 23 12:30:57 2023, MaxMem=   104857600 cpu:              24.4 elap:              30.9
 (Enter /home/sekinelabo/g16/l303.exe)
 DipDrv:  MaxL=1.
 Leave Link  303 at Thu Nov 23 12:31:00 2023, MaxMem=   104857600 cpu:               2.2 elap:               2.8
 (Enter /home/sekinelabo/g16/l401.exe)
 ExpMin= 7.60D-03 ExpMax= 3.62D+04 ExpMxC= 1.21D+03 IAcc=3 IRadAn=         5 AccDes= 0.00D+00
 Harris functional with IExCor=  402 and IRadAn=       5 diagonalized for initial guess.
 HarFok:  IExCor=  402 AccDes= 0.00D+00 IRadAn=         5 IDoV= 1 UseB2=F ITyADJ=14
 ICtDFT=  3500011 ScaDFX=  1.000000  1.000000  1.000000  1.000000
 FoFCou: FMM=F IPFlag=           0 FMFlag=      100000 FMFlg1=           0
         NFxFlg=           0 DoJE=T BraDBF=F KetDBF=T FulRan=T
         wScrn=  0.000000 ICntrl=       500 IOpCl=  0 I1Cent=   200000004 NGrid=           0
         NMat0=    1 NMatS0=      1 NMatT0=    0 NMatD0=    1 NMtDS0=    0 NMtDT0=    0
 Petite list used in FoFCou.
 Harris En= -1135.85775672922    
 JPrj=0 DoOrth=F DoCkMO=F.
 Initial guess <Sx>= 0.0000 <Sy>= 0.0000 <Sz>= 0.5000 <S**2>= 0.7500 S= 0.5000
 Leave Link  401 at Thu Nov 23 12:31:20 2023, MaxMem=   104857600 cpu:              16.5 elap:              20.5
 (Enter /home/sekinelabo/g16/l502.exe)
 Integral symmetry usage will be decided dynamically.
 UHF open shell SCF:
 Using DIIS extrapolation, IDIIS=  1040.
 NGot=   104857600 LenX=   104758426 LenY=   104710896
 Requested convergence on RMS density matrix=1.00D-08 within 128 cycles.
 Requested convergence on MAX density matrix=1.00D-06.
 Requested convergence on             energy=1.00D-06.
 No special actions if energy rises.
 Fock matrices will be formed incrementally for  20 cycles.

 Cycle   1  Pass 1  IDiag  1:
 FoFJK:  IHMeth= 1 ICntrl=       0 DoSepK=F KAlg= 0 I1Cent=           0 FoldK=F
 IRaf= 660000000 NMat=       1 IRICut=       1 DoRegI=T DoRafI=F ISym2E= 0 IDoP0=0 IntGTp=1.
 FoFCou: FMM=F IPFlag=           0 FMFlag=      100000 FMFlg1=           0
         NFxFlg=           0 DoJE=F BraDBF=F KetDBF=F FulRan=T
         wScrn=  0.000000 ICntrl=         0 IOpCl=  1 I1Cent=           0 NGrid=           0
         NMat0=    1 NMatS0=      1 NMatT0=    0 NMatD0=    1 NMtDS0=    0 NMtDT0=    0
 Symmetry not used in FoFCou.
 E= -1136.06334058515    
 DIIS: error= 2.00D-02 at cycle   1 NSaved=   1.
 NSaved= 1 IEnMin= 1 EnMin= -1136.06334058515     IErMin= 1 ErrMin= 2.00D-02
 ErrMax= 2.00D-02  0.00D+00 EMaxC= 1.00D-01 BMatC= 1.83D-01 BMatP= 1.83D-01
 IDIUse=3 WtCom= 8.00D-01 WtEn= 2.00D-01
 Coeff-Com:  0.100D+01
 Coeff-En:   0.100D+01
 Coeff:      0.100D+01
 Gap=     0.058 Goal=   None    Shift=    0.000
 Gap=     0.031 Goal=   None    Shift=    0.000
 GapD=    0.031 DampG=0.250 DampE=0.500 DampFc=0.2500 IDamp=-1.
 Damping current iteration by 2.50D-01
 RMSDP=5.70D-03 MaxDP=4.65D-01              OVMax= 2.08D-01

 Cycle   2  Pass 1  IDiag  1:
 RMSU=  1.27D-03    CP:  9.71D-01
 E= -1136.07155239091     Delta-E=       -0.008211805753 Rises=F Damp=T
 DIIS: error= 1.39D-02 at cycle   2 NSaved=   2.
 NSaved= 2 IEnMin= 2 EnMin= -1136.07155239091     IErMin= 2 ErrMin= 1.39D-02
 ErrMax= 1.39D-02  0.00D+00 EMaxC= 1.00D-01 BMatC= 7.08D-02 BMatP= 1.83D-01
 IDIUse=3 WtCom= 8.61D-01 WtEn= 1.39D-01
 Coeff-Com: -0.130D+01 0.230D+01
 Coeff-En:   0.000D+00 0.100D+01
 Coeff:     -0.112D+01 0.212D+01
 Gap=     0.031 Goal=   None    Shift=    0.000
 Gap=     0.031 Goal=   None    Shift=    0.000
 RMSDP=3.33D-03 MaxDP=2.48D-01 DE=-8.21D-03 OVMax= 1.58D-01

 Cycle   3  Pass 1  IDiag  1:
 RMSU=  1.70D-03    CP:  9.04D-01  2.91D+00
 E= -1136.08708900809     Delta-E=       -0.015536617183 Rises=F Damp=F
 DIIS: error= 1.38D-03 at cycle   3 NSaved=   3.
 NSaved= 3 IEnMin= 3 EnMin= -1136.08708900809     IErMin= 3 ErrMin= 1.38D-03
 ErrMax= 1.38D-03  0.00D+00 EMaxC= 1.00D-01 BMatC= 1.15D-03 BMatP= 7.08D-02
 IDIUse=3 WtCom= 9.86D-01 WtEn= 1.38D-02
 Coeff-Com:  0.322D-02 0.421D-01 0.955D+00
 Coeff-En:   0.000D+00 0.000D+00 0.100D+01
 Coeff:      0.318D-02 0.415D-01 0.955D+00
 Gap=     0.029 Goal=   None    Shift=    0.000
 Gap=     0.029 Goal=   None    Shift=    0.000
 RMSDP=1.48D-03 MaxDP=7.75D-02 DE=-1.55D-02 OVMax= 1.37D-01

 Cycle   4  Pass 1  IDiag  1:
 RMSU=  1.24D-03    CP:  8.89D-01  3.00D+00  6.57D-01
 E= -1136.08500228803     Delta-E=        0.002086720056 Rises=F Damp=F
 DIIS: error= 2.75D-03 at cycle   4 NSaved=   4.
 NSaved= 4 IEnMin= 3 EnMin= -1136.08708900809     IErMin= 3 ErrMin= 1.38D-03
 ErrMax= 2.75D-03  0.00D+00 EMaxC= 1.00D-01 BMatC= 2.35D-03 BMatP= 1.15D-03
 IDIUse=3 WtCom= 1.60D-01 WtEn= 8.40D-01
 Coeff-Com:  0.682D-01-0.890D-01 0.617D+00 0.404D+00
 Coeff-En:   0.000D+00 0.000D+00 0.708D+00 0.292D+00
 Coeff:      0.109D-01-0.142D-01 0.694D+00 0.310D+00
 Gap=     0.030 Goal=   None    Shift=    0.000
 Gap=     0.030 Goal=   None    Shift=    0.000
 RMSDP=7.48D-04 MaxDP=3.59D-02 DE= 2.09D-03 OVMax= 8.44D-02

 Cycle   5  Pass 1  IDiag  1:
 RMSU=  1.96D-04    CP:  8.96D-01  3.00D+00  8.84D-01  5.25D-01
 E= -1136.08808828729     Delta-E=       -0.003085999256 Rises=F Damp=F
 DIIS: error= 3.94D-04 at cycle   5 NSaved=   5.
 NSaved= 5 IEnMin= 5 EnMin= -1136.08808828729     IErMin= 5 ErrMin= 3.94D-04
 ErrMax= 3.94D-04  0.00D+00 EMaxC= 1.00D-01 BMatC= 1.43D-04 BMatP= 1.15D-03
 IDIUse=3 WtCom= 9.96D-01 WtEn= 3.94D-03
 Coeff-Com:  0.138D-01-0.183D-01 0.361D+00 0.146D+00 0.497D+00
 Coeff-En:   0.000D+00 0.000D+00 0.236D-01 0.000D+00 0.976D+00
 Coeff:      0.138D-01-0.182D-01 0.360D+00 0.146D+00 0.499D+00
 Gap=     0.030 Goal=   None    Shift=    0.000
 Gap=     0.030 Goal=   None    Shift=    0.000
 RMSDP=1.57D-04 MaxDP=9.99D-03 DE=-3.09D-03 OVMax= 1.45D-02

 Cycle   6  Pass 1  IDiag  1:
 RMSU=  6.69D-05    CP:  8.96D-01  3.00D+00  9.31D-01  4.56D-01  5.97D-01
 E= -1136.08818672672     Delta-E=       -0.000098439431 Rises=F Damp=F
 DIIS: error= 8.13D-05 at cycle   6 NSaved=   6.
 NSaved= 6 IEnMin= 6 EnMin= -1136.08818672672     IErMin= 6 ErrMin= 8.13D-05
 ErrMax= 8.13D-05  0.00D+00 EMaxC= 1.00D-01 BMatC= 4.46D-06 BMatP= 1.43D-04
 IDIUse=1 WtCom= 1.00D+00 WtEn= 0.00D+00
 Coeff-Com: -0.828D-02 0.108D-01 0.674D-01-0.495D-02 0.266D+00 0.669D+00
 Coeff:     -0.828D-02 0.108D-01 0.674D-01-0.495D-02 0.266D+00 0.669D+00
 Gap=     0.030 Goal=   None    Shift=    0.000
 Gap=     0.030 Goal=   None    Shift=    0.000
 RMSDP=3.71D-05 MaxDP=1.86D-03 DE=-9.84D-05 OVMax= 3.18D-03

 Cycle   7  Pass 1  IDiag  1:
 RMSU=  2.73D-05    CP:  8.96D-01  3.00D+00  9.31D-01  4.58D-01  6.46D-01
                    CP:  6.89D-01
 E= -1136.08819312183     Delta-E=       -0.000006395115 Rises=F Damp=F
 DIIS: error= 1.09D-05 at cycle   7 NSaved=   7.
 NSaved= 7 IEnMin= 7 EnMin= -1136.08819312183     IErMin= 7 ErrMin= 1.09D-05
 ErrMax= 1.09D-05  0.00D+00 EMaxC= 1.00D-01 BMatC= 1.14D-07 BMatP= 4.46D-06
 IDIUse=1 WtCom= 1.00D+00 WtEn= 0.00D+00
 Coeff-Com: -0.399D-02 0.524D-02 0.126D-02-0.867D-02 0.542D-01 0.187D+00
 Coeff-Com:  0.765D+00
 Coeff:     -0.399D-02 0.524D-02 0.126D-02-0.867D-02 0.542D-01 0.187D+00
 Coeff:      0.765D+00
 Gap=     0.030 Goal=   None    Shift=    0.000
 Gap=     0.030 Goal=   None    Shift=    0.000
 RMSDP=1.15D-05 MaxDP=5.14D-04 DE=-6.40D-06 OVMax= 8.11D-04

 Cycle   8  Pass 1  IDiag  1:
 RMSU=  9.46D-06    CP:  8.96D-01  3.00D+00  9.32D-01  4.60D-01  6.61D-01
                    CP:  7.05D-01  1.16D+00
 E= -1136.08819317022     Delta-E=       -0.000000048386 Rises=F Damp=F
 DIIS: error= 1.22D-05 at cycle   8 NSaved=   8.
 NSaved= 8 IEnMin= 8 EnMin= -1136.08819317022     IErMin= 7 ErrMin= 1.09D-05
 ErrMax= 1.22D-05  0.00D+00 EMaxC= 1.00D-01 BMatC= 7.50D-08 BMatP= 1.14D-07
 IDIUse=1 WtCom= 1.00D+00 WtEn= 0.00D+00
 Coeff-Com: -0.175D-02 0.231D-02-0.486D-02-0.474D-02 0.108D-01 0.630D-01
 Coeff-Com:  0.482D+00 0.453D+00
 Coeff:     -0.175D-02 0.231D-02-0.486D-02-0.474D-02 0.108D-01 0.630D-01
 Coeff:      0.482D+00 0.453D+00
 Gap=     0.030 Goal=   None    Shift=    0.000
 Gap=     0.030 Goal=   None    Shift=    0.000
 RMSDP=4.99D-06 MaxDP=3.02D-04 DE=-4.84D-08 OVMax= 3.41D-04

 Cycle   9  Pass 1  IDiag  1:
 RMSU=  2.40D-06    CP:  8.96D-01  3.00D+00  9.32D-01  4.62D-01  6.56D-01
                    CP:  7.07D-01  1.20D+00  6.57D-01
 E= -1136.08819326034     Delta-E=       -0.000000090123 Rises=F Damp=F
 DIIS: error= 1.43D-06 at cycle   9 NSaved=   9.
 NSaved= 9 IEnMin= 9 EnMin= -1136.08819326034     IErMin= 9 ErrMin= 1.43D-06
 ErrMax= 1.43D-06  0.00D+00 EMaxC= 1.00D-01 BMatC= 2.23D-09 BMatP= 7.50D-08
 IDIUse=1 WtCom= 1.00D+00 WtEn= 0.00D+00
 Coeff-Com:  0.148D-03-0.200D-03-0.231D-02 0.814D-04-0.736D-02-0.692D-02
 Coeff-Com:  0.833D-01 0.148D+00 0.786D+00
 Coeff:      0.148D-03-0.200D-03-0.231D-02 0.814D-04-0.736D-02-0.692D-02
 Coeff:      0.833D-01 0.148D+00 0.786D+00
 Gap=     0.030 Goal=   None    Shift=    0.000
 Gap=     0.030 Goal=   None    Shift=    0.000
 RMSDP=2.16D-06 MaxDP=9.57D-05 DE=-9.01D-08 OVMax= 6.75D-05

 Cycle  10  Pass 1  IDiag  1:
 RMSU=  1.04D-06    CP:  8.96D-01  3.00D+00  9.32D-01  4.63D-01  6.55D-01
                    CP:  7.08D-01  1.26D+00  7.05D-01  9.40D-01
 E= -1136.08819326281     Delta-E=       -0.000000002468 Rises=F Damp=F
 DIIS: error= 7.63D-07 at cycle  10 NSaved=  10.
 NSaved=10 IEnMin=10 EnMin= -1136.08819326281     IErMin=10 ErrMin= 7.63D-07
 ErrMax= 7.63D-07  0.00D+00 EMaxC= 1.00D-01 BMatC= 2.43D-10 BMatP= 2.23D-09
 IDIUse=1 WtCom= 1.00D+00 WtEn= 0.00D+00
 Coeff-Com:  0.230D-03-0.306D-03-0.710D-03 0.506D-03-0.455D-02-0.851D-02
 Coeff-Com: -0.303D-02 0.178D-01 0.306D+00 0.693D+00
 Coeff:      0.230D-03-0.306D-03-0.710D-03 0.506D-03-0.455D-02-0.851D-02
 Coeff:     -0.303D-02 0.178D-01 0.306D+00 0.693D+00
 Gap=     0.030 Goal=   None    Shift=    0.000
 Gap=     0.030 Goal=   None    Shift=    0.000
 RMSDP=5.44D-07 MaxDP=2.59D-05 DE=-2.47D-09 OVMax= 2.00D-05

 Cycle  11  Pass 1  IDiag  1:
 RMSU=  1.66D-07    CP:  8.96D-01  3.00D+00  9.32D-01  4.63D-01  6.54D-01
                    CP:  7.09D-01  1.27D+00  7.11D-01  1.00D+00  9.71D-01
 E= -1136.08819326305     Delta-E=       -0.000000000236 Rises=F Damp=F
 DIIS: error= 1.28D-07 at cycle  11 NSaved=  11.
 NSaved=11 IEnMin=11 EnMin= -1136.08819326305     IErMin=11 ErrMin= 1.28D-07
 ErrMax= 1.28D-07  0.00D+00 EMaxC= 1.00D-01 BMatC= 1.23D-11 BMatP= 2.43D-10
 IDIUse=1 WtCom= 1.00D+00 WtEn= 0.00D+00
 Coeff-Com:  0.672D-04-0.888D-04-0.606D-04 0.181D-03-0.983D-03-0.306D-02
 Coeff-Com: -0.887D-02-0.787D-02 0.344D-01 0.169D+00 0.817D+00
 Coeff:      0.672D-04-0.888D-04-0.606D-04 0.181D-03-0.983D-03-0.306D-02
 Coeff:     -0.887D-02-0.787D-02 0.344D-01 0.169D+00 0.817D+00
 Gap=     0.030 Goal=   None    Shift=    0.000
 Gap=     0.030 Goal=   None    Shift=    0.000
 RMSDP=1.71D-07 MaxDP=1.06D-05 DE=-2.36D-10 OVMax= 5.60D-06

 Cycle  12  Pass 1  IDiag  1:
 RMSU=  4.70D-08    CP:  8.96D-01  3.00D+00  9.32D-01  4.63D-01  6.54D-01
                    CP:  7.08D-01  1.27D+00  7.12D-01  1.02D+00  1.02D+00
                    CP:  1.09D+00
 E= -1136.08819326307     Delta-E=       -0.000000000020 Rises=F Damp=F
 DIIS: error= 2.30D-08 at cycle  12 NSaved=  12.
 NSaved=12 IEnMin=12 EnMin= -1136.08819326307     IErMin=12 ErrMin= 2.30D-08
 ErrMax= 2.30D-08  0.00D+00 EMaxC= 1.00D-01 BMatC= 7.62D-13 BMatP= 1.23D-11
 IDIUse=1 WtCom= 1.00D+00 WtEn= 0.00D+00
 Coeff-Com: -0.825D-05 0.110D-04 0.136D-04-0.113D-04 0.113D-03 0.209D-03
 Coeff-Com:  0.281D-03-0.195D-02-0.136D-01-0.188D-01 0.115D+00 0.919D+00
 Coeff:     -0.825D-05 0.110D-04 0.136D-04-0.113D-04 0.113D-03 0.209D-03
 Coeff:      0.281D-03-0.195D-02-0.136D-01-0.188D-01 0.115D+00 0.919D+00
 Gap=     0.030 Goal=   None    Shift=    0.000
 Gap=     0.030 Goal=   None    Shift=    0.000
 RMSDP=2.89D-08 MaxDP=1.44D-06 DE=-2.00D-11 OVMax= 2.21D-06

 Cycle  13  Pass 1  IDiag  1:
 RMSU=  9.88D-09    CP:  8.96D-01  3.00D+00  9.32D-01  4.63D-01  6.54D-01
                    CP:  7.08D-01  1.27D+00  7.12D-01  1.02D+00  1.03D+00
                    CP:  1.14D+00  1.28D+00
 E= -1136.08819326307     Delta-E=        0.000000000002 Rises=F Damp=F
 DIIS: error= 2.35D-08 at cycle  13 NSaved=  13.
 NSaved=13 IEnMin=12 EnMin= -1136.08819326307     IErMin=12 ErrMin= 2.30D-08
 ErrMax= 2.35D-08  0.00D+00 EMaxC= 1.00D-01 BMatC= 2.17D-13 BMatP= 7.62D-13
 IDIUse=1 WtCom= 1.00D+00 WtEn= 0.00D+00
 Coeff-Com: -0.643D-05 0.851D-05 0.719D-05-0.108D-04 0.828D-04 0.332D-03
 Coeff-Com:  0.981D-03 0.389D-04-0.530D-02-0.216D-01-0.552D-01 0.273D+00
 Coeff-Com:  0.808D+00
 Coeff:     -0.643D-05 0.851D-05 0.719D-05-0.108D-04 0.828D-04 0.332D-03
 Coeff:      0.981D-03 0.389D-04-0.530D-02-0.216D-01-0.552D-01 0.273D+00
 Coeff:      0.808D+00
 Gap=     0.030 Goal=   None    Shift=    0.000
 Gap=     0.030 Goal=   None    Shift=    0.000
 RMSDP=1.30D-08 MaxDP=7.94D-07 DE= 1.82D-12 OVMax= 6.41D-07

 Cycle  14  Pass 1  IDiag  1:
 RMSU=  3.04D-09    CP:  8.96D-01  3.00D+00  9.32D-01  4.63D-01  6.54D-01
                    CP:  7.08D-01  1.27D+00  7.11D-01  1.02D+00  1.04D+00
                    CP:  1.16D+00  1.36D+00  1.46D+00
 E= -1136.08819326307     Delta-E=       -0.000000000008 Rises=F Damp=F
 DIIS: error= 3.01D-09 at cycle  14 NSaved=  14.
 NSaved=14 IEnMin=14 EnMin= -1136.08819326307     IErMin=14 ErrMin= 3.01D-09
 ErrMax= 3.01D-09  0.00D+00 EMaxC= 1.00D-01 BMatC= 7.08D-15 BMatP= 2.17D-13
 IDIUse=1 WtCom= 1.00D+00 WtEn= 0.00D+00
 Coeff-Com:  0.919D-07-0.137D-06-0.837D-06 0.749D-06-0.192D-05 0.832D-05
 Coeff-Com:  0.302D-04 0.733D-04 0.508D-03-0.161D-02-0.111D-01-0.365D-01
 Coeff-Com:  0.371D-01 0.101D+01
 Coeff:      0.919D-07-0.137D-06-0.837D-06 0.749D-06-0.192D-05 0.832D-05
 Coeff:      0.302D-04 0.733D-04 0.508D-03-0.161D-02-0.111D-01-0.365D-01
 Coeff:      0.371D-01 0.101D+01
 Gap=     0.030 Goal=   None    Shift=    0.000
 Gap=     0.030 Goal=   None    Shift=    0.000
 RMSDP=4.38D-09 MaxDP=3.20D-07 DE=-8.19D-12 OVMax= 2.48D-07

 SCF Done:  E(UB3LYP) =  -1136.08819326     A.U. after   14 cycles
            NFock= 14  Conv=0.44D-08     -V/T= 2.0028
 <Sx>= 0.0000 <Sy>= 0.0000 <Sz>= 0.5000 <S**2>= 0.7500 S= 0.5000
 <L.S>= 0.000000000000E+00
 KE= 1.132906202283D+03 PE=-3.160582040738D+03 EE= 6.757369591264D+02
 Annihilation of the first spin contaminant:
 S**2 before annihilation     0.7500,   after     0.7500
 Leave Link  502 at Thu Nov 23 12:39:49 2023, MaxMem=   104857600 cpu:             410.7 elap:             508.4
 (Enter /home/sekinelabo/g16/l601.exe)
 Copying SCF densities to generalized density rwf, IOpCl= 1 IROHF=0.

 **********************************************************************

            Population analysis using the SCF Density.

 **********************************************************************

 Orbital symmetries:
 Alpha Orbitals:
       Occupied  (A) (A) (A) (A) (A) (A) (A) (A) (A) (A) (A) (A)
                 (A) (A) (A) (A) (A) (A) (A) (A) (A) (A) (A) (A)
                 (A) (A) (A) (A) (A) (A) (A) (A) (A) (A) (A) (A)
                 (A) (A) (A)
       Virtual   (A) (A) (A) (A) (A) (A) (A) (A) (A) (A) (A) (A)
                 (A) (A) (A) (A) (A) (A) (A) (A) (A) (A) (A) (A)
                 (A) (A) (A) (A) (A) (A) (A) (A) (A) (A) (A) (A)
                 (A) (A) (A) (A) (A) (A) (A) (A) (A) (A) (A) (A)
                 (A) (A) (A) (A) (A) (A) (A) (A) (A) (A) (A) (A)
                 (A) (A) (A) (A) (A) (A) (A) (A) (A) (A) (A) (A)
                 (A) (A) (A) (A) (A) (A) (A) (A) (A) (A) (A) (A)
                 (A) (A) (A) (A) (A) (A) (A) (A) (A) (A) (A) (A)
                 (A) (A) (A) (A) (A) (A) (A) (A) (A) (A) (A) (A)
                 (A) (A) (A) (A) (A) (A) (A) (A) (A) (A) (A) (A)
                 (A) (A) (A) (A) (A) (A) (A) (A) (A) (A) (A) (A)
                 (A) (A) (A) (A) (A) (A) (A) (A) (A) (A) (A) (A)
                 (A) (A) (A) (A) (A) (A) (A) (A) (A) (A) (A) (A)
                 (A) (A) (A) (A) (A) (A) (A) (A) (A) (A) (A) (A)
                 (A) (A) (A)
 Beta  Orbitals:
       Occupied  (A) (A) (A) (A) (A) (A) (A) (A) (A) (A) (A) (A)
                 (A) (A) (A) (A) (A) (A) (A) (A) (A) (A) (A) (A)
                 (A) (A) (A) (A) (A) (A) (A) (A) (A) (A) (A) (A)
                 (A) (A)
       Virtual   (A) (A) (A) (A) (A) (A) (A) (A) (A) (A) (A) (A)
                 (A) (A) (A) (A) (A) (A) (A) (A) (A) (A) (A) (A)
                 (A) (A) (A) (A) (A) (A) (A) (A) (A) (A) (A) (A)
                 (A) (A) (A) (A) (A) (A) (A) (A) (A) (A) (A) (A)
                 (A) (A) (A) (A) (A) (A) (A) (A) (A) (A) (A) (A)
                 (A) (A) (A) (A) (A) (A) (A) (A) (A) (A) (A) (A)
                 (A) (A) (A) (A) (A) (A) (A) (A) (A) (A) (A) (A)
                 (A) (A) (A) (A) (A) (A) (A) (A) (A) (A) (A) (A)
                 (A) (A) (A) (A) (A) (A) (A) (A) (A) (A) (A) (A)
                 (A) (A) (A) (A) (A) (A) (A) (A) (A) (A) (A) (A)
                 (A) (A) (A) (A) (A) (A) (A) (A) (A) (A) (A) (A)
                 (A) (A) (A) (A) (A) (A) (A) (A) (A) (A) (A) (A)
                 (A) (A) (A) (A) (A) (A) (A) (A) (A) (A) (A) (A)
                 (A) (A) (A) (A) (A) (A) (A) (A) (A) (A) (A) (A)
                 (A) (A) (A) (A)
 The electronic state is 2-A.
 Alpha  occ. eigenvalues --  -38.45774 -38.45278 -38.44778 -38.44579 -38.44387
 Alpha  occ. eigenvalues --  -38.43659 -38.43201  -2.21559  -2.21029  -2.20552
 Alpha  occ. eigenvalues --   -2.20424  -2.20225  -2.19500  -2.19050  -1.15172
 Alpha  occ. eigenvalues --   -1.15172  -1.15172  -1.14703  -1.14692  -1.14669
 Alpha  occ. eigenvalues --   -1.14227  -1.14206  -1.14203  -1.14155  -1.14086
 Alpha  occ. eigenvalues --   -1.14075  -1.13878  -1.13865  -1.13850  -1.13179
 Alpha  occ. eigenvalues --   -1.13169  -1.13156  -1.12716  -1.12702  -1.12697
 Alpha  occ. eigenvalues --   -0.16084  -0.13410  -0.12802  -0.11159
 Alpha virt. eigenvalues --   -0.08144  -0.04893  -0.04493  -0.03525  -0.03018
 Alpha virt. eigenvalues --   -0.02101  -0.02101  -0.02101  -0.02071  -0.01862
 Alpha virt. eigenvalues --   -0.01316  -0.00753  -0.00209  -0.00039   0.00117
 Alpha virt. eigenvalues --    0.00164   0.00370   0.00601   0.00810   0.00953
 Alpha virt. eigenvalues --    0.01143   0.01297   0.01331   0.01331   0.01331
 Alpha virt. eigenvalues --    0.01388   0.01483   0.01532   0.01632   0.01870
 Alpha virt. eigenvalues --    0.02103   0.02193   0.02292   0.02395   0.02528
 Alpha virt. eigenvalues --    0.02641   0.02699   0.02790   0.02933   0.03027
 Alpha virt. eigenvalues --    0.03054   0.03117   0.03482   0.03692   0.03965
 Alpha virt. eigenvalues --    0.04070   0.04551   0.04951   0.05127   0.05212
 Alpha virt. eigenvalues --    0.05644   0.05929   0.06353   0.06899   0.07291
 Alpha virt. eigenvalues --    0.07468   0.07468   0.07468   0.07617   0.08013
 Alpha virt. eigenvalues --    0.08015   0.08198   0.08449   0.08602   0.08794
 Alpha virt. eigenvalues --    0.09012   0.09833   0.09882   0.10315   0.10544
 Alpha virt. eigenvalues --    0.11154   0.11659   0.12095   0.12419   0.13685
 Alpha virt. eigenvalues --    0.14163   0.14676   0.15199   0.16291   0.16815
 Alpha virt. eigenvalues --    0.27046   0.28328   0.28943   0.29370   0.29985
 Alpha virt. eigenvalues --    0.30126   0.31449   0.32032   0.32623   0.33224
 Alpha virt. eigenvalues --    0.33224   0.33224   0.33224   0.33224   0.33370
 Alpha virt. eigenvalues --    0.34700   0.34840   0.35645   0.35896   0.36297
 Alpha virt. eigenvalues --    0.37014   0.38348   0.40186   0.40730   0.41938
 Alpha virt. eigenvalues --    0.41938   0.41938   0.42647   0.43066   0.43505
 Alpha virt. eigenvalues --    0.43618   0.43847   0.44053   0.44255   0.44395
 Alpha virt. eigenvalues --    0.44548   0.44938   0.45188   0.45725   0.46411
 Alpha virt. eigenvalues --    0.46839   0.47599   0.48338   0.49115   0.50096
 Alpha virt. eigenvalues --    0.50631   0.51697   0.51867   0.53787   0.54084
 Alpha virt. eigenvalues --    0.54828   0.60699   0.63984   0.68281   0.70076
 Alpha virt. eigenvalues --    0.73510   1.98665   2.03752   2.06714   2.10037
 Alpha virt. eigenvalues --    2.14084   2.17393   2.21353   4.41139   4.41734
 Alpha virt. eigenvalues --    4.42494   4.42808   4.42808   4.42808   4.42981
 Alpha virt. eigenvalues --    4.43943   4.44098   4.44184   4.44785   4.45633
 Alpha virt. eigenvalues --    4.45785   4.46881   4.47229   4.48120   4.54629
 Alpha virt. eigenvalues --    4.55697   4.58362   4.64219   4.66751  96.17682
 Alpha virt. eigenvalues --   96.23364  96.26901  96.31074  96.36435  96.40547
 Alpha virt. eigenvalues --   96.45508
  Beta  occ. eigenvalues --  -38.45589 -38.45278 -38.44778 -38.44579 -38.44387
  Beta  occ. eigenvalues --  -38.43659 -38.43201  -2.21213  -2.21029  -2.20552
  Beta  occ. eigenvalues --   -2.20424  -2.20225  -2.19500  -2.19050  -1.14937
  Beta  occ. eigenvalues --   -1.14937  -1.14937  -1.14703  -1.14692  -1.14669
  Beta  occ. eigenvalues --   -1.14227  -1.14206  -1.14203  -1.14155  -1.14086
  Beta  occ. eigenvalues --   -1.14075  -1.13878  -1.13865  -1.13850  -1.13179
  Beta  occ. eigenvalues --   -1.13169  -1.13156  -1.12716  -1.12702  -1.12697
  Beta  occ. eigenvalues --   -0.16084  -0.13410  -0.11159
  Beta virt. eigenvalues --   -0.08144  -0.06222  -0.04893  -0.04493  -0.03525
  Beta virt. eigenvalues --   -0.03018  -0.02071  -0.01862  -0.01316  -0.00753
  Beta virt. eigenvalues --   -0.00209  -0.00088  -0.00088  -0.00088  -0.00039
  Beta virt. eigenvalues --    0.00164   0.00370   0.00601   0.00810   0.00845
  Beta virt. eigenvalues --    0.00953   0.01143   0.01297   0.01388   0.01483
  Beta virt. eigenvalues --    0.01532   0.01632   0.01870   0.02103   0.02193
  Beta virt. eigenvalues --    0.02245   0.02245   0.02245   0.02292   0.02395
  Beta virt. eigenvalues --    0.02528   0.02641   0.02699   0.02790   0.02933
  Beta virt. eigenvalues --    0.03027   0.03054   0.03117   0.03482   0.03692
  Beta virt. eigenvalues --    0.03965   0.04070   0.04551   0.04951   0.05127
  Beta virt. eigenvalues --    0.05212   0.05644   0.05929   0.06353   0.06899
  Beta virt. eigenvalues --    0.07291   0.07617   0.08013   0.08198   0.08449
  Beta virt. eigenvalues --    0.08602   0.08794   0.08824   0.08824   0.08824
  Beta virt. eigenvalues --    0.09012   0.09455   0.09833   0.09882   0.10315
  Beta virt. eigenvalues --    0.10544   0.11154   0.11659   0.12095   0.12419
  Beta virt. eigenvalues --    0.13685   0.14163   0.14676   0.15199   0.16291
  Beta virt. eigenvalues --    0.16815   0.27046   0.28328   0.28943   0.29370
  Beta virt. eigenvalues --    0.29985   0.30126   0.31449   0.32032   0.32623
  Beta virt. eigenvalues --    0.33370   0.34700   0.34840   0.35322   0.35322
  Beta virt. eigenvalues --    0.35322   0.35322   0.35322   0.35645   0.35896
  Beta virt. eigenvalues --    0.36297   0.37014   0.38348   0.40186   0.40730
  Beta virt. eigenvalues --    0.42647   0.43066   0.43432   0.43432   0.43432
  Beta virt. eigenvalues --    0.43505   0.43618   0.43847   0.44053   0.44255
  Beta virt. eigenvalues --    0.44395   0.44548   0.44938   0.45188   0.45725
  Beta virt. eigenvalues --    0.46411   0.46839   0.47599   0.48338   0.49115
  Beta virt. eigenvalues --    0.50096   0.50631   0.51697   0.51867   0.53787
  Beta virt. eigenvalues --    0.54084   0.54828   0.60699   0.63984   0.68281
  Beta virt. eigenvalues --    0.70076   0.73510   1.99533   2.03752   2.06714
  Beta virt. eigenvalues --    2.10037   2.14084   2.17393   2.21353   4.41139
  Beta virt. eigenvalues --    4.41734   4.42494   4.42981   4.43131   4.43131
  Beta virt. eigenvalues --    4.43131   4.43943   4.44098   4.44184   4.44785
  Beta virt. eigenvalues --    4.45633   4.45785   4.46881   4.47229   4.48120
  Beta virt. eigenvalues --    4.54629   4.55697   4.58362   4.64219   4.66751
  Beta virt. eigenvalues --   96.17950  96.23364  96.26901  96.31074  96.36435
  Beta virt. eigenvalues --   96.40547  96.45508
          Condensed to atoms (all electrons):
               1          2          3          4          5          6
     1  Na  11.199253  -0.080805   0.263409  -0.043265  -0.448641   0.006899
     2  Na  -0.080805  10.752187   0.072004   0.014779   0.277305  -0.048101
     3  Na   0.263409   0.072004  10.715658   0.140224  -0.438880   0.015586
     4  Na  -0.043265   0.014779   0.140224  10.538372   0.224863  -0.033156
     5  Na  -0.448641   0.277305  -0.438880   0.224863  12.336741   0.013646
     6  Na   0.006899  -0.048101   0.015586  -0.033156   0.013646  10.586058
     7  Na   0.000000   0.000000   0.000000   0.000000   0.000000   0.000000
               7
     1  Na   0.000000
     2  Na   0.000000
     3  Na   0.000000
     4  Na   0.000000
     5  Na   0.000000
     6  Na   0.000000
     7  Na  11.000000
          Atomic-Atomic Spin Densities.
               1          2          3          4          5          6
     1  Na  -0.000000   0.000000  -0.000000  -0.000000   0.000000   0.000000
     2  Na   0.000000  -0.000000   0.000000  -0.000000  -0.000000   0.000000
     3  Na  -0.000000   0.000000  -0.000000  -0.000000   0.000000  -0.000000
     4  Na  -0.000000  -0.000000  -0.000000   0.000000   0.000000  -0.000000
     5  Na   0.000000  -0.000000   0.000000   0.000000  -0.000000  -0.000000
     6  Na   0.000000   0.000000  -0.000000  -0.000000  -0.000000   0.000000
     7  Na   0.000000   0.000000   0.000000   0.000000   0.000000   0.000000
               7
     1  Na   0.000000
     2  Na   0.000000
     3  Na   0.000000
     4  Na   0.000000
     5  Na   0.000000
     6  Na   0.000000
     7  Na   1.000000
 Mulliken charges and spin densities:
               1          2
     1  Na   0.103151  -0.000000
     2  Na   0.012631   0.000000
     3  Na   0.232000   0.000000
     4  Na   0.158183   0.000000
     5  Na  -0.965034  -0.000000
     6  Na   0.459068   0.000000
     7  Na  -0.000000   1.000000
 Sum of Mulliken charges =  -0.00000   1.00000
 Mulliken charges and spin densities with hydrogens summed into heavy atoms:
               1          2
     1  Na   0.103151  -0.000000
     2  Na   0.012631   0.000000
     3  Na   0.232000   0.000000
     4  Na   0.158183   0.000000
     5  Na  -0.965034  -0.000000
     6  Na   0.459068   0.000000
     7  Na  -0.000000   1.000000
 Electronic spatial extent (au):  <R**2>=         289678.0552
 Charge=             -0.0000 electrons
 Dipole moment (field-independent basis, Debye):
    X=              0.3515    Y=              0.2509    Z=              0.4720  Tot=              0.6398
 Quadrupole moment (field-independent basis, Debye-Ang):
   XX=            -69.6385   YY=            -75.6883   ZZ=            -68.5793
   XY=             -8.7152   XZ=             -7.5445   YZ=             -2.4953
 Traceless Quadrupole moment (field-independent basis, Debye-Ang):
   XX=              1.6635   YY=             -4.3863   ZZ=              2.7227
   XY=             -8.7152   XZ=             -7.5445   YZ=             -2.4953
 Octapole moment (field-independent basis, Debye-Ang**2):
  XXX=           -610.0188  YYY=              7.2959  ZZZ=              2.6518  XYY=            -57.4305
  XXY=            170.1951  XXZ=            165.1537  XZZ=           -153.1498  YZZ=             -5.5086
  YYZ=             -3.9040  XYZ=             18.7720
 Hexadecapole moment (field-independent basis, Debye-Ang**3):
 XXXX=        -484440.0005 YYYY=          -1297.9276 ZZZZ=           -506.8531 XXXY=          -2938.1754
 XXXZ=          -3848.1265 YYYX=           -119.2984 YYYZ=            -24.4699 ZZZX=            -47.0407
 ZZZY=            -11.2457 XXYY=         -83398.7830 XXZZ=         -81887.1485 YYZZ=           -282.2332
 XXYZ=            -41.6114 YYXZ=             55.2304 ZZXY=             50.2645
 N-N= 2.158506860653D+02 E-N=-3.160582040390D+03  KE= 1.132906202283D+03
                          Isotropic Fermi Contact Couplings
        Atom                 a.u.       MegaHertz       Gauss      10(-4) cm-1
     1  Na(23)            -0.00000      -0.00000      -0.00000      -0.00000
     2  Na(23)             0.00000       0.00000       0.00000       0.00000
     3  Na(23)             0.00000       0.00000       0.00000       0.00000
     4  Na(23)            -0.00000      -0.00000      -0.00000      -0.00000
     5  Na(23)             0.00000       0.00000       0.00000       0.00000
     6  Na(23)            -0.00000      -0.00000      -0.00000      -0.00000
     7  Na(23)             0.79296     938.09919     334.73712     312.91621
 --------------------------------------------------------
       Center         ----  Spin Dipole Couplings  ----
                      3XX-RR        3YY-RR        3ZZ-RR
 --------------------------------------------------------
     1   Atom        0.000000     -0.000000     -0.000000
     2   Atom        0.000000     -0.000000     -0.000000
     3   Atom        0.000000     -0.000000     -0.000000
     4   Atom        0.000000     -0.000000     -0.000000
     5   Atom        0.000000     -0.000000     -0.000000
     6   Atom        0.000000     -0.000000     -0.000000
     7   Atom       -0.000000      0.000000      0.000000
 --------------------------------------------------------
                        XY            XZ            YZ
 --------------------------------------------------------
     1   Atom       -0.000000      0.000000     -0.000000
     2   Atom       -0.000000     -0.000000      0.000000
     3   Atom        0.000000     -0.000000     -0.000000
     4   Atom        0.000000      0.000000      0.000000
     5   Atom       -0.000000      0.000000     -0.000000
     6   Atom       -0.000000     -0.000000      0.000000
     7   Atom       -0.000000      0.000000      0.000000
 --------------------------------------------------------


 ---------------------------------------------------------------------------------
              Anisotropic Spin Dipole Couplings in Principal Axis System
 ---------------------------------------------------------------------------------

       Atom             a.u.   MegaHertz   Gauss  10(-4) cm-1        Axes

              Baa    -0.0000    -0.000    -0.000    -0.000  0.0282  0.9067 -0.4208
     1 Na(23) Bbb    -0.0000    -0.000    -0.000    -0.000  0.0043  0.4209  0.9071
              Bcc     0.0000     0.000     0.000     0.000  0.9996 -0.0274  0.0079
 
              Baa    -0.0000    -0.000    -0.000    -0.000  0.0056  0.8901  0.4556
     2 Na(23) Bbb    -0.0000    -0.000    -0.000    -0.000  0.0012 -0.4557  0.8902
              Bcc     0.0000     0.000     0.000     0.000  1.0000 -0.0044 -0.0036
 
              Baa    -0.0000    -0.000    -0.000    -0.000 -0.0203  0.9989  0.0430
     3 Na(23) Bbb    -0.0000    -0.000    -0.000    -0.000  0.0106 -0.0428  0.9990
              Bcc     0.0000     0.000     0.000     0.000  0.9997  0.0207 -0.0097
 
              Baa    -0.0000    -0.000    -0.000    -0.000  0.0050 -0.6456  0.7637
     4 Na(23) Bbb    -0.0000    -0.000    -0.000    -0.000 -0.0257  0.7633  0.6455
              Bcc     0.0000     0.000     0.000     0.000  0.9997  0.0229  0.0128
 
              Baa    -0.0000    -0.000    -0.000    -0.000  0.0009  0.9850  0.1726
     5 Na(23) Bbb    -0.0000    -0.000    -0.000    -0.000 -0.0059 -0.1726  0.9850
              Bcc     0.0000     0.000     0.000     0.000  1.0000 -0.0019  0.0056
 
              Baa    -0.0000    -0.000    -0.000    -0.000  0.0133  0.3225  0.9465
     6 Na(23) Bbb    -0.0000    -0.000    -0.000    -0.000  0.0042  0.9465 -0.3226
              Bcc     0.0000     0.000     0.000     0.000  0.9999 -0.0082 -0.0112
 
              Baa    -0.0000    -0.000    -0.000    -0.000  0.9708  0.0053 -0.2400
     7 Na(23) Bbb     0.0000     0.000     0.000     0.000 -0.1250  0.8647 -0.4865
              Bcc     0.0000     0.000     0.000     0.000  0.2050  0.5023  0.8400
 

 ---------------------------------------------------------------------------------

 No NMR shielding tensors so no spin-rotation constants.
 Leave Link  601 at Thu Nov 23 12:40:07 2023, MaxMem=   104857600 cpu:              17.1 elap:              18.3
 (Enter /home/sekinelabo/g16/l701.exe)
 ... and contract with generalized density number  0.
 Compute integral first derivatives.
 Leave Link  701 at Thu Nov 23 12:40:16 2023, MaxMem=   104857600 cpu:               7.6 elap:               8.2
 (Enter /home/sekinelabo/g16/l702.exe)
 L702 exits ... SP integral derivatives will be done elsewhere.
 Leave Link  702 at Thu Nov 23 12:40:16 2023, MaxMem=   104857600 cpu:               0.6 elap:               0.8
 (Enter /home/sekinelabo/g16/l703.exe)
 Integral derivatives from FoFJK, PRISM(SPDF).
 Compute integral first derivatives, UseDBF=F ICtDFT=           0.
 Calling FoFJK, ICntrl=      2127 FMM=F ISym2X=0 I1Cent= 0 IOpClX= 1 NMat=1 NMatS=1 NMatT=0.
 FoFJK:  IHMeth= 1 ICntrl=    2127 DoSepK=F KAlg= 0 I1Cent=           0 FoldK=F
 IRaf=         0 NMat=       1 IRICut=       1 DoRegI=T DoRafI=F ISym2E= 0 IDoP0=0 IntGTp=1.
 FoFCou: FMM=F IPFlag=           0 FMFlag=      100000 FMFlg1=         800
         NFxFlg=           0 DoJE=F BraDBF=F KetDBF=F FulRan=T
         wScrn=  0.000000 ICntrl=      2127 IOpCl=  1 I1Cent=           0 NGrid=           0
         NMat0=    1 NMatS0=      1 NMatT0=    0 NMatD0=    1 NMtDS0=    0 NMtDT0=    0
 Symmetry not used in FoFCou.
 Leave Link  703 at Thu Nov 23 12:40:46 2023, MaxMem=   104857600 cpu:              29.9 elap:              29.5
 (Enter /home/sekinelabo/g16/l716.exe)
 Dipole        = 1.38300734D-01 9.87171831D-02 1.85691097D-01
 ***** Axes restored to original set *****
 -------------------------------------------------------------------
 Center     Atomic                   Forces (Hartrees/Bohr)
 Number     Number              X              Y              Z
 -------------------------------------------------------------------
      1       11           0.001952579    0.000935832   -0.001953326
      2       11           0.002737452   -0.006451920    0.002320015
      3       11          -0.004879063    0.002954829   -0.000483313
      4       11           0.001161334    0.005068221    0.001020666
      5       11          -0.000670821   -0.001694000   -0.000938035
      6       11          -0.000301481   -0.000812962    0.000033993
      7       11          -0.000000000    0.000000000   -0.000000000
 -------------------------------------------------------------------
 Cartesian Forces:  Max     0.006451920 RMS     0.002476623
 Z-matrix is all fixed cartesians, so copy forces.
 Force constants in Cartesian coordinates: 
                1             2             3             4             5 
      1  0.153948D-01
      2  0.763658D-02  0.125599D-01
      3 -0.501886D-02 -0.606248D-02  0.316256D-02
      4 -0.190706D-01 -0.403758D-02  0.397871D-02  0.432728D-01
      5 -0.104241D-01 -0.983463D-02  0.526629D-02 -0.500732D-02  0.279239D-01
      6  0.661047D-02  0.449060D-02 -0.273679D-02 -0.581884D-02 -0.118101D-01
      7  0.368008D-02 -0.358471D-02  0.107505D-02 -0.228511D-01  0.159681D-01
      8  0.279259D-02 -0.270841D-02  0.837292D-03  0.612737D-02 -0.193502D-01
      9 -0.158745D-02  0.158567D-02 -0.392115D-03  0.390848D-02  0.738258D-02
     10 -0.430086D-05 -0.142960D-04 -0.348933D-04 -0.133086D-02 -0.512740D-03
     11 -0.506591D-05 -0.168390D-04 -0.411002D-04  0.289283D-02  0.123184D-02
     12 -0.414801D-05 -0.137879D-04 -0.336532D-04 -0.204054D-02 -0.806066D-03
     13  0.000000D+00  0.000000D+00  0.000000D+00 -0.202854D-04 -0.238939D-04
     14  0.000000D+00  0.000000D+00  0.000000D+00  0.246972D-04  0.290905D-04
     15  0.000000D+00  0.000000D+00  0.000000D+00 -0.278109D-04 -0.327579D-04
     16  0.000000D+00  0.000000D+00  0.000000D+00  0.000000D+00  0.000000D+00
     17  0.000000D+00  0.000000D+00  0.000000D+00  0.000000D+00  0.000000D+00
     18  0.000000D+00  0.000000D+00  0.000000D+00  0.000000D+00  0.000000D+00
     19  0.000000D+00  0.000000D+00  0.000000D+00  0.000000D+00  0.000000D+00
     20  0.000000D+00  0.000000D+00  0.000000D+00  0.000000D+00  0.000000D+00
     21  0.000000D+00  0.000000D+00  0.000000D+00  0.000000D+00  0.000000D+00
                6             7             8             9            10 
      6  0.977542D-02
      7 -0.300224D-02  0.370873D-01
      8  0.117525D-01 -0.112840D-01  0.323242D-01
      9 -0.103649D-01 -0.119540D-01 -0.120479D-01  0.297413D-01
     10  0.223017D-02 -0.161205D-01  0.569808D-02  0.111581D-01  0.324196D-01
     11 -0.445682D-02 -0.212828D-02 -0.122049D-01  0.221075D-02  0.634984D-02
     12  0.335308D-02  0.115387D-01 -0.477001D-02 -0.209942D-01 -0.848645D-02
     13 -0.195645D-04 -0.176528D-02 -0.337121D-02 -0.148330D-02 -0.150786D-01
     14  0.238195D-04  0.101185D-02  0.196014D-02  0.845509D-03 -0.814244D-02
     15 -0.268225D-04  0.230089D-02  0.427880D-02  0.195291D-02 -0.614244D-02
     16  0.000000D+00 -0.305387D-04  0.371804D-04 -0.418678D-04  0.114654D-03
     17  0.000000D+00  0.170773D-04 -0.207913D-04  0.234125D-04 -0.337845D-02
     18  0.000000D+00  0.415786D-04 -0.506214D-04  0.570033D-04  0.127549D-02
     19  0.000000D+00  0.000000D+00  0.000000D+00  0.000000D+00  0.000000D+00
     20  0.000000D+00  0.000000D+00  0.000000D+00  0.000000D+00  0.000000D+00
     21  0.000000D+00  0.000000D+00  0.000000D+00  0.000000D+00  0.000000D+00
               11            12            13            14            15 
     11  0.322225D-01
     12  0.947290D-02  0.271172D-01
     13 -0.700037D-02 -0.103763D-02  0.382314D-01
     14 -0.252078D-01  0.175767D-03  0.126657D-01  0.348658D-01
     15 -0.564336D-02 -0.111474D-01  0.170439D-01 -0.158715D-02  0.204175D-01
     16 -0.108966D-03  0.300691D-04 -0.213672D-01 -0.555983D-02 -0.131745D-01
     17  0.397518D-02 -0.405880D-02 -0.227024D-02 -0.116472D-01  0.298447D-02
     18 -0.154236D-02  0.170495D-02 -0.145034D-01  0.542054D-03 -0.111961D-01
     19  0.000000D+00  0.000000D+00  0.000000D+00  0.000000D+00  0.000000D+00
     20  0.000000D+00  0.000000D+00  0.000000D+00  0.000000D+00  0.000000D+00
     21  0.000000D+00  0.000000D+00  0.000000D+00  0.000000D+00  0.000000D+00
               16            17            18            19            20 
     16  0.212831D-01
     17  0.563161D-02  0.769281D-02
     18  0.131863D-01  0.105093D-02  0.943416D-02
     19  0.000000D+00  0.000000D+00  0.000000D+00  0.100000D+01
     20  0.000000D+00  0.000000D+00  0.000000D+00  0.000000D+00  0.100000D+01
     21  0.000000D+00  0.000000D+00  0.000000D+00  0.000000D+00  0.000000D+00
               21 
     21  0.100000D+01
 Leave Link  716 at Thu Nov 23 12:40:47 2023, MaxMem=   104857600 cpu:               0.7 elap:               0.8
 (Enter /home/sekinelabo/g16/l103.exe)

 GradGradGradGradGradGradGradGradGradGradGradGradGradGradGradGradGradGrad
 Berny optimization.
 Search for a local minimum.
 Step number   1 out of a maximum of    2
 All quantities printed in internal units (Hartrees-Bohrs-Radians)
 Second derivative matrix not updated -- first step.
 ITU=  0
     Eigenvalues ---    0.00005   0.00020   0.00061   0.00676   0.00799
     Eigenvalues ---    0.00864   0.01102   0.02881   0.03383   0.05317
     Eigenvalues ---    0.05470   0.07117   0.08390   0.08881   0.85714
 Eigenvalue     1 is   5.36D-05 Eigenvector:
                          X1        Z1        Y6        X6        Y4
   1                    0.50987   0.41834   0.37232  -0.34707  -0.31825
                          Z2        X5        Z5        X2        X3
   1                   -0.18327  -0.18092  -0.17660   0.15630  -0.13255
 Quadratic step=1.521D+01 exceeds max=3.000D-01 adjusted using Lamda=-8.758D-03.
 Angle between NR and scaled steps=  47.10 degrees.
 Angle between quadratic step and forces=  45.13 degrees.
 Linear search not attempted -- first point.
 B after Tr=     0.000000   -0.000000   -0.000000
         Rot=    1.000000    0.000000    0.000000    0.000000 Ang=   0.00 deg.
 Variable       Old X    -DE/DX   Delta X   Delta X   Delta X     New X
                                 (Linear)    (Quad)   (Total)
    X1       17.25838   0.00195   0.00000   0.03778   0.03778  17.29616
    Y1        0.25102   0.00094   0.00000  -0.07020  -0.07020   0.18082
    Z1        3.84501  -0.00195   0.00000  -0.12530  -0.12530   3.71970
    X2       21.63094   0.00274   0.00000   0.03567   0.03567  21.66661
    Y2        4.10477  -0.00645   0.00000  -0.10975  -0.10975   3.99502
    Z2        1.72715   0.00232   0.00000   0.08469   0.08469   1.81184
    X3       17.88210  -0.00488   0.00000  -0.03790  -0.03790  17.84420
    Y3        8.32481   0.00295   0.00000   0.03474   0.03474   8.35955
    Z3        0.46025  -0.00048   0.00000   0.01851   0.01851   0.47876
    X4       13.39689   0.00116   0.00000  -0.03271  -0.03271  13.36418
    Y4        8.97854   0.00507   0.00000   0.18456   0.18456   9.16310
    Z4        4.31234   0.00102   0.00000  -0.01560  -0.01560   4.29673
    X5        9.50011  -0.00067   0.00000  -0.00644  -0.00644   9.49367
    Y5        4.58633  -0.00169   0.00000   0.04159   0.04159   4.62792
    Z5        3.25420  -0.00094   0.00000   0.01279   0.01279   3.26699
    X6        4.62733  -0.00030   0.00000   0.00360   0.00360   4.63094
    Y6        3.27336  -0.00081   0.00000  -0.08095  -0.08095   3.19242
    Z6        0.21451   0.00003   0.00000   0.02492   0.02492   0.23942
    X7      188.40872  -0.00000   0.00000  -0.00000  -0.00000 188.40872
    Y7        4.78341   0.00000   0.00000   0.00000   0.00000   4.78341
    Z7        3.13301  -0.00000   0.00000   0.00000   0.00000   3.13301
         Item               Value     Threshold  Converged?
 Maximum Force            0.006452     0.000450     NO 
 RMS     Force            0.002477     0.000300     NO 
 Maximum Displacement     0.184560     0.001800     NO 
 RMS     Displacement     0.065476     0.001200     NO 
 Predicted change in Energy=-1.596093D-03
 GradGradGradGradGradGradGradGradGradGradGradGradGradGradGradGradGradGrad

 Leave Link  103 at Thu Nov 23 12:40:50 2023, MaxMem=   104857600 cpu:               3.0 elap:               2.8
 (Enter /home/sekinelabo/g16/l9999.exe)
 1\1\GINC-SEKINELABO-XA7R-R37\Force\UB3LYP\6-311+G(d)\Na7(2)\SEKINELABO
 \23-Nov-2023\0\\#P B3LYP/6-311+g(d) force\\DPGEN\\0,2\Na,9.13274,0.132
 832,2.03469\Na,11.4466,2.17215,0.91397\Na,9.4628,4.4053,0.243554\Na,7.
 08933,4.75124,2.28199\Na,5.02724,2.42698,1.72205\Na,2.44868,1.73219,0.
 113512\Na,99.701599,2.53127,1.65792\\Version=ES64L-G16RevB.01\State=2-
 A\HF=-1136.0881933\S2=0.750009\S2-1=0.\S2A=0.75\RMSD=4.378e-09\RMSF=2.
 477e-03\Dipole=0.1391497,-0.1072268,-0.1802585\Quadrupole=1.1908215,-3
 .4276028,2.2367813,6.7361243,5.299379,-1.5736226\PG=C01 [X(Na7)]\\@


 THE 2ND LAW OF THERMODYNAMICS HAS THE SAME
 DEGREE OF TRUTH AS THE STATEMENT THAT IF YOU THROW
 A TUMBLERFULL OF WATER INTO THE SEA, YOU CANNOT GET
 THE SAME TUMBLERFULL OF WATER OUT AGAIN.
          - J.C. MAXWELL, LETTER TO LORD RAYLEIGH, DECEMBER 6,1870
 Job cpu time:       0 days  0 hours  8 minutes 38.7 seconds.
 Elapsed time:       0 days  0 hours 10 minutes 29.7 seconds.
 File lengths (MBytes):  RWF=     46 Int=      0 D2E=      0 Chk=      4 Scr=      1
 Normal termination of Gaussian 16 at Thu Nov 23 12:40:51 2023.
