 Entering Gaussian System, Link 0=g16
 Initial command:
 /home/sekinelabo/g16/l1.exe "/home/sekinelabo/g16temp/Gau-934081.inp" -scrdir="/home/sekinelabo/g16temp/"
 Entering Link 1 = /home/sekinelabo/g16/l1.exe PID=    934093.
  
 Copyright (c) 1988-2017, Gaussian, Inc.  All Rights Reserved.
  
 This is part of the Gaussian(R) 16 program.  It is based on
 the Gaussian(R) 09 system (copyright 2009, Gaussian, Inc.),
 the Gaussian(R) 03 system (copyright 2003, Gaussian, Inc.),
 the Gaussian(R) 98 system (copyright 1998, Gaussian, Inc.),
 the Gaussian(R) 94 system (copyright 1995, Gaussian, Inc.),
 the Gaussian 92(TM) system (copyright 1992, Gaussian, Inc.),
 the Gaussian 90(TM) system (copyright 1990, Gaussian, Inc.),
 the Gaussian 88(TM) system (copyright 1988, Gaussian, Inc.),
 the Gaussian 86(TM) system (copyright 1986, Carnegie Mellon
 University), and the Gaussian 82(TM) system (copyright 1983,
 Carnegie Mellon University). Gaussian is a federally registered
 trademark of Gaussian, Inc.
  
 This software contains proprietary and confidential information,
 including trade secrets, belonging to Gaussian, Inc.
  
 This software is provided under written license and may be
 used, copied, transmitted, or stored only in accord with that
 written license.
  
 The following legend is applicable only to US Government
 contracts under FAR:
  
                    RESTRICTED RIGHTS LEGEND
  
 Use, reproduction and disclosure by the US Government is
 subject to restrictions as set forth in subparagraphs (a)
 and (c) of the Commercial Computer Software - Restricted
 Rights clause in FAR 52.227-19.
  
 Gaussian, Inc.
 340 Quinnipiac St., Bldg. 40, Wallingford CT 06492
  
  
 ---------------------------------------------------------------
 Warning -- This program may not be used in any manner that
 competes with the business of Gaussian, Inc. or will provide
 assistance to any competitor of Gaussian, Inc.  The licensee
 of this program is prohibited from giving any competitor of
 Gaussian, Inc. access to this program.  By using this program,
 the user acknowledges that Gaussian, Inc. is engaged in the
 business of creating and licensing software in the field of
 computational chemistry and represents and warrants to the
 licensee that it is not a competitor of Gaussian, Inc. and that
 it will not use this program in any manner prohibited above.
 ---------------------------------------------------------------
  

 Cite this work as:
 Gaussian 16, Revision B.01,
 M. J. Frisch, G. W. Trucks, H. B. Schlegel, G. E. Scuseria, 
 M. A. Robb, J. R. Cheeseman, G. Scalmani, V. Barone, 
 G. A. Petersson, H. Nakatsuji, X. Li, M. Caricato, A. V. Marenich, 
 J. Bloino, B. G. Janesko, R. Gomperts, B. Mennucci, H. P. Hratchian, 
 J. V. Ortiz, A. F. Izmaylov, J. L. Sonnenberg, D. Williams-Young, 
 F. Ding, F. Lipparini, F. Egidi, J. Goings, B. Peng, A. Petrone, 
 T. Henderson, D. Ranasinghe, V. G. Zakrzewski, J. Gao, N. Rega, 
 G. Zheng, W. Liang, M. Hada, M. Ehara, K. Toyota, R. Fukuda, 
 J. Hasegawa, M. Ishida, T. Nakajima, Y. Honda, O. Kitao, H. Nakai, 
 T. Vreven, K. Throssell, J. A. Montgomery, Jr., J. E. Peralta, 
 F. Ogliaro, M. J. Bearpark, J. J. Heyd, E. N. Brothers, K. N. Kudin, 
 V. N. Staroverov, T. A. Keith, R. Kobayashi, J. Normand, 
 K. Raghavachari, A. P. Rendell, J. C. Burant, S. S. Iyengar, 
 J. Tomasi, M. Cossi, J. M. Millam, M. Klene, C. Adamo, R. Cammi, 
 J. W. Ochterski, R. L. Martin, K. Morokuma, O. Farkas, 
 J. B. Foresman, and D. J. Fox, Gaussian, Inc., Wallingford CT, 2016.
 
 ******************************************
 Gaussian 16:  ES64L-G16RevB.01 20-Dec-2017
                21-Nov-2023 
 ******************************************
 %nprocshared=14
 Will use up to   14 processors via shared memory.
 -------------------------
 #P B3LYP/6-311+g(d) force
 -------------------------
 1/10=7,30=1,38=1/1,3;
 2/12=2,17=6,18=5,40=1/2;
 3/5=4,6=6,7=11,11=2,25=1,30=1,71=1,74=-5/1,2,3;
 4//1;
 5/5=2,38=5/2;
 6/7=2,8=2,9=2,10=2,28=1/1;
 7/29=1/1,2,3,16;
 1/10=7,30=1/3;
 99//99;
 Leave Link    1 at Tue Nov 21 11:40:17 2023, MaxMem=           0 cpu:               0.6 elap:               0.4
 (Enter /home/sekinelabo/g16/l101.exe)
 -----
 DPGEN
 -----
 Symbolic Z-matrix:
 Charge =  0 Multiplicity = 2
 Na                    9.41251   29.9715   1.76901 
 Na                    10.6715   2.24923   29.6246 
 Na                    9.12241   4.83186   29.962 
 Na                    6.70687   4.78996   2.24022 
 Na                    5.45295   2.2378    2.03644 
 Na                    2.4312    2.17564   0.6249 
 Na                    0.51153   1.89602   2.71045 
 
 ITRead=  0  0  0  0  0  0  0
 MicOpt= -1 -1 -1 -1 -1 -1 -1
 NAtoms=      7 NQM=        7 NQMF=       0 NMMI=      0 NMMIF=      0
                NMic=       0 NMicF=      0.
                    Isotopes and Nuclear Properties:
 (Nuclear quadrupole moments (NQMom) in fm**2, nuclear magnetic moments (NMagM)
  in nuclear magnetons)

  Atom         1           2           3           4           5           6           7
 IAtWgt=          23          23          23          23          23          23          23
 AtmWgt=  22.9897697  22.9897697  22.9897697  22.9897697  22.9897697  22.9897697  22.9897697
 NucSpn=           3           3           3           3           3           3           3
 AtZEff=  -0.0000000  -0.0000000  -0.0000000  -0.0000000  -0.0000000  -0.0000000  -0.0000000
 NQMom=   10.4000000  10.4000000  10.4000000  10.4000000  10.4000000  10.4000000  10.4000000
 NMagM=    2.2175200   2.2175200   2.2175200   2.2175200   2.2175200   2.2175200   2.2175200
 AtZNuc=  11.0000000  11.0000000  11.0000000  11.0000000  11.0000000  11.0000000  11.0000000
 Leave Link  101 at Tue Nov 21 11:40:20 2023, MaxMem=   104857600 cpu:               2.6 elap:               2.7
 (Enter /home/sekinelabo/g16/l103.exe)

 GradGradGradGradGradGradGradGradGradGradGradGradGradGradGradGradGradGrad
 Berny optimization.
 Initialization pass.
 Trust Radius=3.00D-01 FncErr=1.00D-07 GrdErr=1.00D-07 EigMax=2.50D+02 EigMin=1.00D-04
 Number of steps in this run=      2 maximum allowed number of steps=      2.
 GradGradGradGradGradGradGradGradGradGradGradGradGradGradGradGradGradGrad

 Leave Link  103 at Tue Nov 21 11:40:20 2023, MaxMem=   104857600 cpu:               0.5 elap:               0.4
 (Enter /home/sekinelabo/g16/l202.exe)
                          Input orientation:                          
 ---------------------------------------------------------------------
 Center     Atomic      Atomic             Coordinates (Angstroms)
 Number     Number       Type             X           Y           Z
 ---------------------------------------------------------------------
      1         11           0        9.412510   29.971500    1.769010
      2         11           0       10.671500    2.249230   29.624600
      3         11           0        9.122410    4.831860   29.962000
      4         11           0        6.706870    4.789960    2.240220
      5         11           0        5.452950    2.237800    2.036440
      6         11           0        2.431200    2.175640    0.624896
      7         11           0        0.511528    1.896020    2.710450
 ---------------------------------------------------------------------
                    Distance matrix (angstroms):
                    1          2          3          4          5
     1  Na   0.000000
     2  Na  39.319756   0.000000
     3  Na  37.774732   3.030428   0.000000
     4  Na  25.330860  27.786289  27.826852   0.000000
     5  Na  28.016205  28.077392  28.284819   2.850853   0.000000
     6  Na  28.682007  30.147816  30.207507   5.265481   3.335760
     7  Na  29.467717  28.770145  28.730009   6.854069   4.998875
                    6          7
     6  Na   0.000000
     7  Na   2.848309   0.000000
 Stoichiometry    Na7(2)
 Framework group  C1[X(Na7)]
 Deg. of freedom    15
 Full point group                 C1      NOp   1
 Largest Abelian subgroup         C1      NOp   1
 Largest concise Abelian subgroup C1      NOp   1
                         Standard orientation:                         
 ---------------------------------------------------------------------
 Center     Atomic      Atomic             Coordinates (Angstroms)
 Number     Number       Type             X           Y           Z
 ---------------------------------------------------------------------
      1         11           0      -13.856086   20.396677    0.316888
      2         11           0       20.677431    1.640763   -0.985074
      3         11           0       20.031305    3.725319    1.117459
      4         11           0       -6.552714   -3.705244   -2.405369
      5         11           0       -6.191391   -6.467445   -1.799520
      6         11           0       -7.944038   -7.665698    0.773360
      7         11           0       -6.164508   -7.924372    2.982257
 ---------------------------------------------------------------------
 Rotational constants (GHZ):           0.0348631           0.0179595           0.0121258
 Leave Link  202 at Tue Nov 21 11:40:21 2023, MaxMem=   104857600 cpu:               0.8 elap:               0.9
 (Enter /home/sekinelabo/g16/l301.exe)
 Standard basis: 6-311+G(d) (5D, 7F)
 Ernie: Thresh=  0.10000D-02 Tol=  0.10000D-05 Strict=F.
 There are   217 symmetry adapted cartesian basis functions of A   symmetry.
 There are   210 symmetry adapted basis functions of A   symmetry.
   210 basis functions,   350 primitive gaussians,   217 cartesian basis functions
    39 alpha electrons       38 beta electrons
       nuclear repulsion energy       149.9655679545 Hartrees.
 IExCor=  402 DFT=T Ex+Corr=B3LYP ExCW=0 ScaHFX=  0.200000
 ScaDFX=  0.800000  0.720000  1.000000  0.810000 ScalE2=  1.000000  1.000000
 IRadAn=      5 IRanWt=     -1 IRanGd=            0 ICorTp=0 IEmpDi=  4
 NAtoms=    7 NActive=    7 NUniq=    7 SFac= 1.00D+00 NAtFMM=   60 NAOKFM=F Big=F
 Integral buffers will be    131072 words long.
 Raffenetti 2 integral format.
 Two-electron integral symmetry is turned on.
 Leave Link  301 at Tue Nov 21 11:40:22 2023, MaxMem=   104857600 cpu:               0.7 elap:               0.8
 (Enter /home/sekinelabo/g16/l302.exe)
 NPDir=0 NMtPBC=     1 NCelOv=     1 NCel=       1 NClECP=     1 NCelD=      1
         NCelK=      1 NCelE2=     1 NClLst=     1 CellRange=     0.0.
 One-electron integrals computed using PRISM.
 One-electron integral symmetry used in STVInt
 NBasis=   210 RedAO= T EigKep=  4.19D-05  NBF=   210
 NBsUse=   210 1.00D-06 EigRej= -1.00D+00 NBFU=   210
 Precomputing XC quadrature grid using
 IXCGrd= 4 IRadAn=           5 IRanWt=          -1 IRanGd=           0 AccXCQ= 0.00D+00.
 Generated NRdTot=       0 NPtTot=           0 NUsed=           0 NTot=          32
 NSgBfM=   142   141   142   142   142 MxSgAt=     7 MxSgA2=     7.
 Leave Link  302 at Tue Nov 21 11:40:54 2023, MaxMem=   104857600 cpu:              29.0 elap:              31.5
 (Enter /home/sekinelabo/g16/l303.exe)
 DipDrv:  MaxL=1.
 Leave Link  303 at Tue Nov 21 11:40:56 2023, MaxMem=   104857600 cpu:               2.3 elap:               2.4
 (Enter /home/sekinelabo/g16/l401.exe)
 ExpMin= 7.60D-03 ExpMax= 3.62D+04 ExpMxC= 1.21D+03 IAcc=3 IRadAn=         5 AccDes= 0.00D+00
 Harris functional with IExCor=  402 and IRadAn=       5 diagonalized for initial guess.
 HarFok:  IExCor=  402 AccDes= 0.00D+00 IRadAn=         5 IDoV= 1 UseB2=F ITyADJ=14
 ICtDFT=  3500011 ScaDFX=  1.000000  1.000000  1.000000  1.000000
 FoFCou: FMM=F IPFlag=           0 FMFlag=      100000 FMFlg1=           0
         NFxFlg=           0 DoJE=T BraDBF=F KetDBF=T FulRan=T
         wScrn=  0.000000 ICntrl=       500 IOpCl=  0 I1Cent=   200000004 NGrid=           0
         NMat0=    1 NMatS0=      1 NMatT0=    0 NMatD0=    1 NMtDS0=    0 NMtDT0=    0
 Petite list used in FoFCou.
 Harris En= -1135.85877757142    
 JPrj=0 DoOrth=F DoCkMO=F.
 Initial guess <Sx>= 0.0000 <Sy>= 0.0000 <Sz>= 0.5000 <S**2>= 0.7500 S= 0.5000
 Leave Link  401 at Tue Nov 21 11:41:13 2023, MaxMem=   104857600 cpu:              15.9 elap:              17.0
 (Enter /home/sekinelabo/g16/l502.exe)
 Integral symmetry usage will be decided dynamically.
 UHF open shell SCF:
 Using DIIS extrapolation, IDIIS=  1040.
 NGot=   104857600 LenX=   104758426 LenY=   104710896
 Requested convergence on RMS density matrix=1.00D-08 within 128 cycles.
 Requested convergence on MAX density matrix=1.00D-06.
 Requested convergence on             energy=1.00D-06.
 No special actions if energy rises.
 Fock matrices will be formed incrementally for  20 cycles.

 Cycle   1  Pass 1  IDiag  1:
 FoFJK:  IHMeth= 1 ICntrl=       0 DoSepK=F KAlg= 0 I1Cent=           0 FoldK=F
 IRaf= 500000000 NMat=       1 IRICut=       1 DoRegI=T DoRafI=F ISym2E= 0 IDoP0=0 IntGTp=1.
 FoFCou: FMM=F IPFlag=           0 FMFlag=      100000 FMFlg1=           0
         NFxFlg=           0 DoJE=F BraDBF=F KetDBF=F FulRan=T
         wScrn=  0.000000 ICntrl=         0 IOpCl=  1 I1Cent=           0 NGrid=           0
         NMat0=    1 NMatS0=      1 NMatT0=    0 NMatD0=    1 NMtDS0=    0 NMtDT0=    0
 Symmetry not used in FoFCou.
 E= -1136.06624705879    
 DIIS: error= 2.00D-02 at cycle   1 NSaved=   1.
 NSaved= 1 IEnMin= 1 EnMin= -1136.06624705879     IErMin= 1 ErrMin= 2.00D-02
 ErrMax= 2.00D-02  0.00D+00 EMaxC= 1.00D-01 BMatC= 1.81D-01 BMatP= 1.81D-01
 IDIUse=3 WtCom= 8.00D-01 WtEn= 2.00D-01
 Coeff-Com:  0.100D+01
 Coeff-En:   0.100D+01
 Coeff:      0.100D+01
 Gap=     0.075 Goal=   None    Shift=    0.000
 Gap=     0.043 Goal=   None    Shift=    0.000
 GapD=    0.043 DampG=0.250 DampE=0.500 DampFc=0.2500 IDamp=-1.
 Damping current iteration by 2.50D-01
 RMSDP=3.57D-03 MaxDP=1.73D-01              OVMax= 9.57D-02

 Cycle   2  Pass 1  IDiag  1:
 RMSU=  8.40D-04    CP:  9.86D-01
 E= -1136.07358777022     Delta-E=       -0.007340711431 Rises=F Damp=T
 DIIS: error= 1.39D-02 at cycle   2 NSaved=   2.
 NSaved= 2 IEnMin= 2 EnMin= -1136.07358777022     IErMin= 2 ErrMin= 1.39D-02
 ErrMax= 1.39D-02  0.00D+00 EMaxC= 1.00D-01 BMatC= 7.09D-02 BMatP= 1.81D-01
 IDIUse=3 WtCom= 8.61D-01 WtEn= 1.39D-01
 Coeff-Com: -0.133D+01 0.233D+01
 Coeff-En:   0.000D+00 0.100D+01
 Coeff:     -0.114D+01 0.214D+01
 Gap=     0.057 Goal=   None    Shift=    0.000
 Gap=     0.056 Goal=   None    Shift=    0.000
 RMSDP=3.49D-03 MaxDP=1.73D-01 DE=-7.34D-03 OVMax= 3.74D-02

 Cycle   3  Pass 1  IDiag  1:
 RMSU=  1.70D-03    CP:  9.26D-01  3.00D+00
 E= -1136.08893739217     Delta-E=       -0.015349621950 Rises=F Damp=F
 DIIS: error= 6.62D-04 at cycle   3 NSaved=   3.
 NSaved= 3 IEnMin= 3 EnMin= -1136.08893739217     IErMin= 3 ErrMin= 6.62D-04
 ErrMax= 6.62D-04  0.00D+00 EMaxC= 1.00D-01 BMatC= 2.37D-04 BMatP= 7.09D-02
 IDIUse=3 WtCom= 9.93D-01 WtEn= 6.62D-03
 Coeff-Com:  0.986D-01-0.124D+00 0.103D+01
 Coeff-En:   0.000D+00 0.000D+00 0.100D+01
 Coeff:      0.979D-01-0.123D+00 0.103D+01
 Gap=     0.058 Goal=   None    Shift=    0.000
 Gap=     0.058 Goal=   None    Shift=    0.000
 RMSDP=2.94D-04 MaxDP=1.21D-02 DE=-1.53D-02 OVMax= 1.49D-02

 Cycle   4  Pass 1  IDiag  1:
 RMSU=  1.96D-04    CP:  9.21D-01  3.00D+00  1.12D+00
 E= -1136.08897220880     Delta-E=       -0.000034816636 Rises=F Damp=F
 DIIS: error= 2.77D-04 at cycle   4 NSaved=   4.
 NSaved= 4 IEnMin= 4 EnMin= -1136.08897220880     IErMin= 4 ErrMin= 2.77D-04
 ErrMax= 2.77D-04  0.00D+00 EMaxC= 1.00D-01 BMatC= 7.53D-05 BMatP= 2.37D-04
 IDIUse=3 WtCom= 9.97D-01 WtEn= 2.77D-03
 Coeff-Com:  0.518D-01-0.682D-01 0.469D+00 0.548D+00
 Coeff-En:   0.000D+00 0.000D+00 0.282D+00 0.718D+00
 Coeff:      0.516D-01-0.680D-01 0.468D+00 0.548D+00
 Gap=     0.058 Goal=   None    Shift=    0.000
 Gap=     0.058 Goal=   None    Shift=    0.000
 RMSDP=9.68D-05 MaxDP=7.69D-03 DE=-3.48D-05 OVMax= 8.04D-03

 Cycle   5  Pass 1  IDiag  1:
 RMSU=  3.56D-05    CP:  9.21D-01  3.00D+00  1.14D+00  6.13D-01
 E= -1136.08901198031     Delta-E=       -0.000039771505 Rises=F Damp=F
 DIIS: error= 5.85D-05 at cycle   5 NSaved=   5.
 NSaved= 5 IEnMin= 5 EnMin= -1136.08901198031     IErMin= 5 ErrMin= 5.85D-05
 ErrMax= 5.85D-05  0.00D+00 EMaxC= 1.00D-01 BMatC= 2.58D-06 BMatP= 7.53D-05
 IDIUse=1 WtCom= 1.00D+00 WtEn= 0.00D+00
 Coeff-Com:  0.124D-01-0.168D-01 0.108D+00 0.204D+00 0.693D+00
 Coeff:      0.124D-01-0.168D-01 0.108D+00 0.204D+00 0.693D+00
 Gap=     0.058 Goal=   None    Shift=    0.000
 Gap=     0.058 Goal=   None    Shift=    0.000
 RMSDP=2.37D-05 MaxDP=1.29D-03 DE=-3.98D-05 OVMax= 1.37D-03

 Cycle   6  Pass 1  IDiag  1:
 RMSU=  1.09D-05    CP:  9.21D-01  3.00D+00  1.15D+00  6.76D-01  7.31D-01
 E= -1136.08901345380     Delta-E=       -0.000001473489 Rises=F Damp=F
 DIIS: error= 6.91D-06 at cycle   6 NSaved=   6.
 NSaved= 6 IEnMin= 6 EnMin= -1136.08901345380     IErMin= 6 ErrMin= 6.91D-06
 ErrMax= 6.91D-06  0.00D+00 EMaxC= 1.00D-01 BMatC= 5.04D-08 BMatP= 2.58D-06
 IDIUse=1 WtCom= 1.00D+00 WtEn= 0.00D+00
 Coeff-Com: -0.810D-03 0.992D-03 0.237D-02 0.986D-02 0.964D-01 0.891D+00
 Coeff:     -0.810D-03 0.992D-03 0.237D-02 0.986D-02 0.964D-01 0.891D+00
 Gap=     0.058 Goal=   None    Shift=    0.000
 Gap=     0.058 Goal=   None    Shift=    0.000
 RMSDP=6.47D-06 MaxDP=2.73D-04 DE=-1.47D-06 OVMax= 2.87D-04

 Cycle   7  Pass 1  IDiag  1:
 RMSU=  2.27D-06    CP:  9.20D-01  3.00D+00  1.16D+00  6.78D-01  7.82D-01
                    CP:  1.05D+00
 E= -1136.08901348363     Delta-E=       -0.000000029828 Rises=F Damp=F
 DIIS: error= 3.36D-06 at cycle   7 NSaved=   7.
 NSaved= 7 IEnMin= 7 EnMin= -1136.08901348363     IErMin= 7 ErrMin= 3.36D-06
 ErrMax= 3.36D-06  0.00D+00 EMaxC= 1.00D-01 BMatC= 6.69D-09 BMatP= 5.04D-08
 IDIUse=1 WtCom= 1.00D+00 WtEn= 0.00D+00
 Coeff-Com: -0.836D-03 0.109D-02-0.439D-02-0.721D-02-0.106D-01 0.316D+00
 Coeff-Com:  0.706D+00
 Coeff:     -0.836D-03 0.109D-02-0.439D-02-0.721D-02-0.106D-01 0.316D+00
 Coeff:      0.706D+00
 Gap=     0.058 Goal=   None    Shift=    0.000
 Gap=     0.058 Goal=   None    Shift=    0.000
 RMSDP=1.36D-06 MaxDP=8.00D-05 DE=-2.98D-08 OVMax= 1.24D-04

 Cycle   8  Pass 1  IDiag  1:
 RMSU=  7.80D-07    CP:  9.20D-01  3.00D+00  1.16D+00  6.80D-01  7.77D-01
                    CP:  1.11D+00  8.26D-01
 E= -1136.08901348887     Delta-E=       -0.000000005247 Rises=F Damp=F
 DIIS: error= 1.14D-06 at cycle   8 NSaved=   8.
 NSaved= 8 IEnMin= 8 EnMin= -1136.08901348887     IErMin= 8 ErrMin= 1.14D-06
 ErrMax= 1.14D-06  0.00D+00 EMaxC= 1.00D-01 BMatC= 6.80D-10 BMatP= 6.69D-09
 IDIUse=1 WtCom= 1.00D+00 WtEn= 0.00D+00
 Coeff-Com: -0.105D-03 0.140D-03-0.138D-02-0.342D-02-0.155D-01 0.200D-01
 Coeff-Com:  0.245D+00 0.755D+00
 Coeff:     -0.105D-03 0.140D-03-0.138D-02-0.342D-02-0.155D-01 0.200D-01
 Coeff:      0.245D+00 0.755D+00
 Gap=     0.058 Goal=   None    Shift=    0.000
 Gap=     0.058 Goal=   None    Shift=    0.000
 RMSDP=5.24D-07 MaxDP=2.72D-05 DE=-5.25D-09 OVMax= 4.64D-05

 Cycle   9  Pass 1  IDiag  1:
 RMSU=  2.13D-07    CP:  9.20D-01  3.00D+00  1.16D+00  6.81D-01  7.79D-01
                    CP:  1.13D+00  9.53D-01  8.15D-01
 E= -1136.08901348930     Delta-E=       -0.000000000427 Rises=F Damp=F
 DIIS: error= 4.59D-07 at cycle   9 NSaved=   9.
 NSaved= 9 IEnMin= 9 EnMin= -1136.08901348930     IErMin= 9 ErrMin= 4.59D-07
 ErrMax= 4.59D-07  0.00D+00 EMaxC= 1.00D-01 BMatC= 8.96D-11 BMatP= 6.80D-10
 IDIUse=1 WtCom= 1.00D+00 WtEn= 0.00D+00
 Coeff-Com:  0.433D-04-0.559D-04-0.171D-03-0.914D-03-0.607D-02-0.210D-01
 Coeff-Com:  0.364D-01 0.345D+00 0.646D+00
 Coeff:      0.433D-04-0.559D-04-0.171D-03-0.914D-03-0.607D-02-0.210D-01
 Coeff:      0.364D-01 0.345D+00 0.646D+00
 Gap=     0.058 Goal=   None    Shift=    0.000
 Gap=     0.058 Goal=   None    Shift=    0.000
 RMSDP=1.66D-07 MaxDP=1.09D-05 DE=-4.27D-10 OVMax= 1.36D-05

 Cycle  10  Pass 1  IDiag  1:
 RMSU=  3.76D-08    CP:  9.20D-01  3.00D+00  1.16D+00  6.81D-01  7.79D-01
                    CP:  1.13D+00  9.57D-01  9.22D-01  7.01D-01
 E= -1136.08901348937     Delta-E=       -0.000000000075 Rises=F Damp=F
 DIIS: error= 5.14D-08 at cycle  10 NSaved=  10.
 NSaved=10 IEnMin=10 EnMin= -1136.08901348937     IErMin=10 ErrMin= 5.14D-08
 ErrMax= 5.14D-08  0.00D+00 EMaxC= 1.00D-01 BMatC= 9.07D-13 BMatP= 8.96D-11
 IDIUse=1 WtCom= 1.00D+00 WtEn= 0.00D+00
 Coeff-Com:  0.123D-04-0.159D-04-0.298D-05-0.969D-04-0.821D-03-0.647D-02
 Coeff-Com: -0.191D-02 0.507D-01 0.138D+00 0.821D+00
 Coeff:      0.123D-04-0.159D-04-0.298D-05-0.969D-04-0.821D-03-0.647D-02
 Coeff:     -0.191D-02 0.507D-01 0.138D+00 0.821D+00
 Gap=     0.058 Goal=   None    Shift=    0.000
 Gap=     0.058 Goal=   None    Shift=    0.000
 RMSDP=2.07D-08 MaxDP=6.85D-07 DE=-7.46D-11 OVMax= 1.21D-06

 Cycle  11  Pass 1  IDiag  1:
 RMSU=  8.87D-09    CP:  9.20D-01  3.00D+00  1.16D+00  6.81D-01  7.79D-01
                    CP:  1.13D+00  9.63D-01  9.31D-01  7.26D-01  1.07D+00
 E= -1136.08901348939     Delta-E=       -0.000000000015 Rises=F Damp=F
 DIIS: error= 1.62D-08 at cycle  11 NSaved=  11.
 NSaved=11 IEnMin=11 EnMin= -1136.08901348939     IErMin=11 ErrMin= 1.62D-08
 ErrMax= 1.62D-08  0.00D+00 EMaxC= 1.00D-01 BMatC= 1.27D-13 BMatP= 9.07D-13
 IDIUse=1 WtCom= 1.00D+00 WtEn= 0.00D+00
 Coeff-Com:  0.991D-06-0.128D-05 0.165D-04 0.431D-04 0.211D-03-0.672D-03
 Coeff-Com: -0.328D-02-0.750D-02-0.644D-03 0.273D+00 0.739D+00
 Coeff:      0.991D-06-0.128D-05 0.165D-04 0.431D-04 0.211D-03-0.672D-03
 Coeff:     -0.328D-02-0.750D-02-0.644D-03 0.273D+00 0.739D+00
 Gap=     0.058 Goal=   None    Shift=    0.000
 Gap=     0.058 Goal=   None    Shift=    0.000
 RMSDP=6.51D-09 MaxDP=2.18D-07 DE=-1.46D-11 OVMax= 3.17D-07

 SCF Done:  E(UB3LYP) =  -1136.08901349     A.U. after   11 cycles
            NFock= 11  Conv=0.65D-08     -V/T= 2.0028
 <Sx>= 0.0000 <Sy>= 0.0000 <Sz>= 0.5000 <S**2>= 0.7500 S= 0.5000
 <L.S>= 0.000000000000E+00
 KE= 1.132937675823D+03 PE=-3.028954044831D+03 EE= 6.099617875644D+02
 Annihilation of the first spin contaminant:
 S**2 before annihilation     0.7500,   after     0.7500
 Leave Link  502 at Tue Nov 21 11:46:27 2023, MaxMem=   104857600 cpu:             293.4 elap:             313.4
 (Enter /home/sekinelabo/g16/l601.exe)
 Copying SCF densities to generalized density rwf, IOpCl= 1 IROHF=0.

 **********************************************************************

            Population analysis using the SCF Density.

 **********************************************************************

 Orbital symmetries:
 Alpha Orbitals:
       Occupied  (A) (A) (A) (A) (A) (A) (A) (A) (A) (A) (A) (A)
                 (A) (A) (A) (A) (A) (A) (A) (A) (A) (A) (A) (A)
                 (A) (A) (A) (A) (A) (A) (A) (A) (A) (A) (A) (A)
                 (A) (A) (A)
       Virtual   (A) (A) (A) (A) (A) (A) (A) (A) (A) (A) (A) (A)
                 (A) (A) (A) (A) (A) (A) (A) (A) (A) (A) (A) (A)
                 (A) (A) (A) (A) (A) (A) (A) (A) (A) (A) (A) (A)
                 (A) (A) (A) (A) (A) (A) (A) (A) (A) (A) (A) (A)
                 (A) (A) (A) (A) (A) (A) (A) (A) (A) (A) (A) (A)
                 (A) (A) (A) (A) (A) (A) (A) (A) (A) (A) (A) (A)
                 (A) (A) (A) (A) (A) (A) (A) (A) (A) (A) (A) (A)
                 (A) (A) (A) (A) (A) (A) (A) (A) (A) (A) (A) (A)
                 (A) (A) (A) (A) (A) (A) (A) (A) (A) (A) (A) (A)
                 (A) (A) (A) (A) (A) (A) (A) (A) (A) (A) (A) (A)
                 (A) (A) (A) (A) (A) (A) (A) (A) (A) (A) (A) (A)
                 (A) (A) (A) (A) (A) (A) (A) (A) (A) (A) (A) (A)
                 (A) (A) (A) (A) (A) (A) (A) (A) (A) (A) (A) (A)
                 (A) (A) (A) (A) (A) (A) (A) (A) (A) (A) (A) (A)
                 (A) (A) (A)
 Beta  Orbitals:
       Occupied  (A) (A) (A) (A) (A) (A) (A) (A) (A) (A) (A) (A)
                 (A) (A) (A) (A) (A) (A) (A) (A) (A) (A) (A) (A)
                 (A) (A) (A) (A) (A) (A) (A) (A) (A) (A) (A) (A)
                 (A) (A)
       Virtual   (A) (A) (A) (A) (A) (A) (A) (A) (A) (A) (A) (A)
                 (A) (A) (A) (A) (A) (A) (A) (A) (A) (A) (A) (A)
                 (A) (A) (A) (A) (A) (A) (A) (A) (A) (A) (A) (A)
                 (A) (A) (A) (A) (A) (A) (A) (A) (A) (A) (A) (A)
                 (A) (A) (A) (A) (A) (A) (A) (A) (A) (A) (A) (A)
                 (A) (A) (A) (A) (A) (A) (A) (A) (A) (A) (A) (A)
                 (A) (A) (A) (A) (A) (A) (A) (A) (A) (A) (A) (A)
                 (A) (A) (A) (A) (A) (A) (A) (A) (A) (A) (A) (A)
                 (A) (A) (A) (A) (A) (A) (A) (A) (A) (A) (A) (A)
                 (A) (A) (A) (A) (A) (A) (A) (A) (A) (A) (A) (A)
                 (A) (A) (A) (A) (A) (A) (A) (A) (A) (A) (A) (A)
                 (A) (A) (A) (A) (A) (A) (A) (A) (A) (A) (A) (A)
                 (A) (A) (A) (A) (A) (A) (A) (A) (A) (A) (A) (A)
                 (A) (A) (A) (A) (A) (A) (A) (A) (A) (A) (A) (A)
                 (A) (A) (A) (A)
 The electronic state is 2-A.
 Alpha  occ. eigenvalues --  -38.45778 -38.44310 -38.44201 -38.44198 -38.44197
 Alpha  occ. eigenvalues --  -38.43966 -38.43903  -2.21562  -2.20135  -2.20064
 Alpha  occ. eigenvalues --   -2.19990  -2.19983  -2.19797  -2.19761  -1.15175
 Alpha  occ. eigenvalues --   -1.15175  -1.15175  -1.14009  -1.13778  -1.13776
 Alpha  occ. eigenvalues --   -1.13772  -1.13718  -1.13692  -1.13679  -1.13654
 Alpha  occ. eigenvalues --   -1.13654  -1.13625  -1.13625  -1.13600  -1.13537
 Alpha  occ. eigenvalues --   -1.13447  -1.13439  -1.13397  -1.13383  -1.13281
 Alpha  occ. eigenvalues --   -0.15109  -0.13084  -0.12805  -0.12043
 Alpha virt. eigenvalues --   -0.06251  -0.05528  -0.04521  -0.03193  -0.02376
 Alpha virt. eigenvalues --   -0.02358  -0.02358  -0.02104  -0.02104  -0.02104
 Alpha virt. eigenvalues --   -0.01921  -0.01019  -0.00807  -0.00656   0.00114
 Alpha virt. eigenvalues --    0.00229   0.00293   0.00629   0.00630   0.00657
 Alpha virt. eigenvalues --    0.00681   0.00831   0.00879   0.01013   0.01111
 Alpha virt. eigenvalues --    0.01276   0.01277   0.01325   0.01328   0.01328
 Alpha virt. eigenvalues --    0.01518   0.01600   0.01604   0.01818   0.01851
 Alpha virt. eigenvalues --    0.01905   0.02131   0.02171   0.02269   0.02526
 Alpha virt. eigenvalues --    0.02560   0.02603   0.02838   0.02839   0.03168
 Alpha virt. eigenvalues --    0.03224   0.03629   0.03977   0.04349   0.04665
 Alpha virt. eigenvalues --    0.04921   0.05173   0.07026   0.07196   0.07299
 Alpha virt. eigenvalues --    0.07350   0.07378   0.07380   0.07465   0.07465
 Alpha virt. eigenvalues --    0.07471   0.07622   0.07902   0.08008   0.08041
 Alpha virt. eigenvalues --    0.08675   0.09005   0.09609   0.09719   0.09720
 Alpha virt. eigenvalues --    0.09857   0.10587   0.10637   0.10676   0.11898
 Alpha virt. eigenvalues --    0.13434   0.13927   0.15150   0.15846   0.16224
 Alpha virt. eigenvalues --    0.27898   0.28554   0.29059   0.29841   0.29841
 Alpha virt. eigenvalues --    0.30702   0.31251   0.31935   0.33029   0.33029
 Alpha virt. eigenvalues --    0.33112   0.33221   0.33221   0.33221   0.33221
 Alpha virt. eigenvalues --    0.33221   0.33530   0.34577   0.34977   0.36715
 Alpha virt. eigenvalues --    0.36911   0.38083   0.38083   0.38938   0.39497
 Alpha virt. eigenvalues --    0.41935   0.41935   0.41936   0.41936   0.42322
 Alpha virt. eigenvalues --    0.42709   0.43196   0.43317   0.43317   0.43472
 Alpha virt. eigenvalues --    0.43588   0.43781   0.44059   0.44059   0.44399
 Alpha virt. eigenvalues --    0.45733   0.46332   0.47241   0.47722   0.47924
 Alpha virt. eigenvalues --    0.48835   0.48835   0.50254   0.51226   0.52293
 Alpha virt. eigenvalues --    0.53177   0.55344   0.60640   0.71101   0.77521
 Alpha virt. eigenvalues --    0.79085   1.98661   2.02094   2.05977   2.09074
 Alpha virt. eigenvalues --    2.11840   2.12638   2.18228   4.40916   4.42033
 Alpha virt. eigenvalues --    4.42502   4.42627   4.42805   4.42805   4.42806
 Alpha virt. eigenvalues --    4.43629   4.43629   4.43652   4.43895   4.44974
 Alpha virt. eigenvalues --    4.45835   4.45835   4.46316   4.47146   4.47399
 Alpha virt. eigenvalues --    4.53408   4.63957   4.70961   4.72924  96.17678
 Alpha virt. eigenvalues --   96.21129  96.25889  96.30047  96.34665  96.34969
 Alpha virt. eigenvalues --   96.42193
  Beta  occ. eigenvalues --  -38.45592 -38.44310 -38.44201 -38.44198 -38.44197
  Beta  occ. eigenvalues --  -38.43966 -38.43903  -2.21216  -2.20135  -2.20064
  Beta  occ. eigenvalues --   -2.19990  -2.19983  -2.19797  -2.19761  -1.14941
  Beta  occ. eigenvalues --   -1.14941  -1.14941  -1.14009  -1.13778  -1.13776
  Beta  occ. eigenvalues --   -1.13772  -1.13718  -1.13692  -1.13679  -1.13654
  Beta  occ. eigenvalues --   -1.13654  -1.13625  -1.13625  -1.13600  -1.13537
  Beta  occ. eigenvalues --   -1.13447  -1.13439  -1.13397  -1.13383  -1.13281
  Beta  occ. eigenvalues --   -0.15109  -0.13084  -0.12043
  Beta virt. eigenvalues --   -0.06251  -0.06225  -0.05528  -0.04521  -0.03193
  Beta virt. eigenvalues --   -0.02376  -0.02358  -0.02358  -0.01921  -0.01019
  Beta virt. eigenvalues --   -0.00807  -0.00656  -0.00090  -0.00090  -0.00089
  Beta virt. eigenvalues --    0.00229   0.00293   0.00629   0.00630   0.00657
  Beta virt. eigenvalues --    0.00681   0.00831   0.00843   0.00880   0.01015
  Beta virt. eigenvalues --    0.01112   0.01276   0.01277   0.01516   0.01598
  Beta virt. eigenvalues --    0.01601   0.01818   0.01851   0.01904   0.02127
  Beta virt. eigenvalues --    0.02162   0.02243   0.02243   0.02252   0.02274
  Beta virt. eigenvalues --    0.02530   0.02560   0.02603   0.02838   0.02839
  Beta virt. eigenvalues --    0.03169   0.03225   0.03629   0.03977   0.04349
  Beta virt. eigenvalues --    0.04665   0.04921   0.05174   0.07026   0.07196
  Beta virt. eigenvalues --    0.07301   0.07351   0.07378   0.07380   0.07621
  Beta virt. eigenvalues --    0.07902   0.08033   0.08675   0.08821   0.08821
  Beta virt. eigenvalues --    0.08827   0.09006   0.09452   0.09610   0.09719
  Beta virt. eigenvalues --    0.09720   0.09857   0.10587   0.10637   0.10676
  Beta virt. eigenvalues --    0.11898   0.13434   0.13927   0.15150   0.15846
  Beta virt. eigenvalues --    0.16224   0.27898   0.28554   0.29059   0.29841
  Beta virt. eigenvalues --    0.29841   0.30702   0.31251   0.31935   0.33029
  Beta virt. eigenvalues --    0.33029   0.33112   0.33530   0.34577   0.34977
  Beta virt. eigenvalues --    0.35319   0.35319   0.35319   0.35319   0.35319
  Beta virt. eigenvalues --    0.36715   0.36911   0.38083   0.38083   0.38938
  Beta virt. eigenvalues --    0.39497   0.41936   0.42322   0.42709   0.43196
  Beta virt. eigenvalues --    0.43317   0.43317   0.43429   0.43429   0.43431
  Beta virt. eigenvalues --    0.43472   0.43588   0.43781   0.44059   0.44059
  Beta virt. eigenvalues --    0.44399   0.45733   0.46332   0.47241   0.47722
  Beta virt. eigenvalues --    0.47924   0.48835   0.48835   0.50254   0.51226
  Beta virt. eigenvalues --    0.52293   0.53177   0.55344   0.60640   0.71101
  Beta virt. eigenvalues --    0.77521   0.79085   1.99530   2.02094   2.05977
  Beta virt. eigenvalues --    2.09074   2.11840   2.12638   2.18228   4.40916
  Beta virt. eigenvalues --    4.42033   4.42503   4.42627   4.43127   4.43127
  Beta virt. eigenvalues --    4.43128   4.43629   4.43629   4.43652   4.43895
  Beta virt. eigenvalues --    4.44974   4.45835   4.45835   4.46316   4.47146
  Beta virt. eigenvalues --    4.47399   4.53408   4.63957   4.70961   4.72924
  Beta virt. eigenvalues --   96.17947  96.21129  96.25889  96.30047  96.34665
  Beta virt. eigenvalues --   96.34969  96.42193
          Condensed to atoms (all electrons):
               1          2          3          4          5          6
     1  Na  11.000000   0.000000  -0.000000  -0.000000  -0.000000  -0.000000
     2  Na   0.000000  10.648415   0.351486  -0.000000   0.000000   0.000000
     3  Na  -0.000000   0.351486  10.648614  -0.000000   0.000000   0.000000
     4  Na  -0.000000  -0.000000  -0.000000  10.788681   0.175643  -0.241810
     5  Na  -0.000000   0.000000   0.000000   0.175643  11.118038   0.360340
     6  Na  -0.000000   0.000000   0.000000  -0.241810   0.360340  10.936770
     7  Na  -0.000000  -0.000000   0.000000  -0.057529  -0.270422   0.210723
               7
     1  Na  -0.000000
     2  Na  -0.000000
     3  Na   0.000000
     4  Na  -0.057529
     5  Na  -0.270422
     6  Na   0.210723
     7  Na  10.802619
          Atomic-Atomic Spin Densities.
               1          2          3          4          5          6
     1  Na   1.000000  -0.000000  -0.000000  -0.000000  -0.000000  -0.000000
     2  Na  -0.000000  -0.000000  -0.000000  -0.000000   0.000000   0.000000
     3  Na  -0.000000  -0.000000   0.000000   0.000000  -0.000000  -0.000000
     4  Na  -0.000000  -0.000000   0.000000  -0.000036  -0.000005   0.000013
     5  Na  -0.000000   0.000000  -0.000000  -0.000005   0.000036  -0.000003
     6  Na  -0.000000   0.000000  -0.000000   0.000013  -0.000003  -0.000007
     7  Na   0.000000  -0.000000   0.000000   0.000014  -0.000013  -0.000005
               7
     1  Na   0.000000
     2  Na  -0.000000
     3  Na   0.000000
     4  Na   0.000014
     5  Na  -0.000013
     6  Na  -0.000005
     7  Na   0.000006
 Mulliken charges and spin densities:
               1          2
     1  Na  -0.000000   1.000000
     2  Na   0.000100  -0.000000
     3  Na  -0.000100   0.000000
     4  Na   0.335015  -0.000015
     5  Na  -0.383600   0.000015
     6  Na  -0.266023  -0.000002
     7  Na   0.314608   0.000002
 Sum of Mulliken charges =  -0.00000   1.00000
 Mulliken charges and spin densities with hydrogens summed into heavy atoms:
               1          2
     1  Na  -0.000000   1.000000
     2  Na   0.000100  -0.000000
     3  Na  -0.000100   0.000000
     4  Na   0.335015  -0.000015
     5  Na  -0.383600   0.000015
     6  Na  -0.266023  -0.000002
     7  Na   0.314608   0.000002
 Electronic spatial extent (au):  <R**2>=          72187.1392
 Charge=             -0.0000 electrons
 Dipole moment (field-independent basis, Debye):
    X=              0.1293    Y=              0.1673    Z=              0.5234  Tot=              0.5645
 Quadrupole moment (field-independent basis, Debye-Ang):
   XX=            -73.4805   YY=            -67.3304   ZZ=            -67.9897
   XY=             -4.9036   XZ=             -1.6115   YZ=              1.5122
 Traceless Quadrupole moment (field-independent basis, Debye-Ang):
   XX=             -3.8803   YY=              2.2698   ZZ=              1.6105
   XY=             -4.9036   XZ=             -1.6115   YZ=              1.5122
 Octapole moment (field-independent basis, Debye-Ang**2):
  XXX=            -82.6614  YYY=            -74.1182  ZZZ=             33.8212  XYY=             81.7644
  XXY=            -82.5485  XXZ=            -87.9158  XZZ=             90.6360  YZZ=            -27.4711
  YYZ=             36.5175  XYZ=            102.9151
 Hexadecapole moment (field-independent basis, Debye-Ang**3):
 XXXX=         -78584.9184 YYYY=         -40372.1053 ZZZZ=          -1514.4446 XXXY=          -1139.5790
 XXXZ=          -1834.5523 YYYX=           1465.1042 YYYZ=            252.8209 ZZZX=           -140.9147
 ZZZY=           -238.6904 XXYY=         -18366.3150 XXZZ=         -11601.3364 YYZZ=          -6842.2973
 XXYZ=           2197.8113 YYXZ=            745.3865 ZZXY=            485.7066
 N-N= 1.499655679545D+02 E-N=-3.028954046328D+03  KE= 1.132937675823D+03
                          Isotropic Fermi Contact Couplings
        Atom                 a.u.       MegaHertz       Gauss      10(-4) cm-1
     1  Na(23)             0.79296     938.09903     334.73706     312.91615
     2  Na(23)             0.00000       0.00000       0.00000       0.00000
     3  Na(23)             0.00000       0.00000       0.00000       0.00000
     4  Na(23)            -0.00000      -0.00006      -0.00002      -0.00002
     5  Na(23)             0.00000       0.00002       0.00001       0.00001
     6  Na(23)            -0.00000      -0.00002      -0.00001      -0.00001
     7  Na(23)            -0.00000      -0.00001      -0.00000      -0.00000
 --------------------------------------------------------
       Center         ----  Spin Dipole Couplings  ----
                      3XX-RR        3YY-RR        3ZZ-RR
 --------------------------------------------------------
     1   Atom        0.000000     -0.000000      0.000000
     2   Atom        0.000003     -0.000001     -0.000002
     3   Atom        0.000004     -0.000001     -0.000003
     4   Atom       -0.000007      0.000016     -0.000009
     5   Atom       -0.000005      0.000012     -0.000007
     6   Atom       -0.000005      0.000012     -0.000006
     7   Atom       -0.000005      0.000010     -0.000006
 --------------------------------------------------------
                        XY            XZ            YZ
 --------------------------------------------------------
     1   Atom        0.000000     -0.000000     -0.000000
     2   Atom       -0.000003     -0.000000      0.000000
     3   Atom       -0.000003      0.000000     -0.000000
     4   Atom       -0.000008     -0.000001      0.000003
     5   Atom       -0.000005     -0.000000      0.000001
     6   Atom       -0.000004      0.000000     -0.000000
     7   Atom       -0.000004      0.000000     -0.000002
 --------------------------------------------------------


 ---------------------------------------------------------------------------------
              Anisotropic Spin Dipole Couplings in Principal Axis System
 ---------------------------------------------------------------------------------

       Atom             a.u.   MegaHertz   Gauss  10(-4) cm-1        Axes

              Baa    -0.0000    -0.000    -0.000    -0.000 -0.3853  0.9226 -0.0204
     1 Na(23) Bbb     0.0000     0.000     0.000     0.000  0.6795  0.2986  0.6702
              Bcc     0.0000     0.000     0.000     0.000 -0.6244 -0.2444  0.7419
 
              Baa    -0.0000    -0.000    -0.000    -0.000  0.2387  0.3774  0.8948
     2 Na(23) Bbb    -0.0000    -0.000    -0.000    -0.000  0.4143  0.7938 -0.4453
              Bcc     0.0000     0.001     0.000     0.000  0.8783 -0.4770 -0.0331
 
              Baa    -0.0000    -0.000    -0.000    -0.000  0.1819  0.4127  0.8925
     3 Na(23) Bbb    -0.0000    -0.000    -0.000    -0.000  0.4026  0.7968 -0.4505
              Bcc     0.0000     0.001     0.000     0.000  0.8971 -0.4413  0.0212
 
              Baa    -0.0000    -0.001    -0.000    -0.000  0.8804  0.2193  0.4205
     4 Na(23) Bbb    -0.0000    -0.001    -0.000    -0.000 -0.3765 -0.2159  0.9009
              Bcc     0.0000     0.003     0.001     0.001 -0.2883  0.9515  0.1075
 
              Baa    -0.0000    -0.001    -0.000    -0.000  0.6944  0.2514 -0.6743
     5 Na(23) Bbb    -0.0000    -0.001    -0.000    -0.000  0.6655  0.1320  0.7346
              Bcc     0.0000     0.002     0.001     0.001 -0.2736  0.9588  0.0757
 
              Baa    -0.0000    -0.001    -0.000    -0.000  0.9558  0.1978 -0.2176
     6 Na(23) Bbb    -0.0000    -0.001    -0.000    -0.000  0.2098  0.0601  0.9759
              Bcc     0.0000     0.002     0.001     0.001 -0.2061  0.9784 -0.0159
 
              Baa    -0.0000    -0.001    -0.000    -0.000  0.6267  0.2400  0.7414
     7 Na(23) Bbb    -0.0000    -0.001    -0.000    -0.000  0.7343  0.1368 -0.6649
              Bcc     0.0000     0.002     0.001     0.001 -0.2610  0.9611 -0.0905
 

 ---------------------------------------------------------------------------------

 No NMR shielding tensors so no spin-rotation constants.
 Leave Link  601 at Tue Nov 21 11:46:46 2023, MaxMem=   104857600 cpu:              17.9 elap:              19.1
 (Enter /home/sekinelabo/g16/l701.exe)
 ... and contract with generalized density number  0.
 Compute integral first derivatives.
 Leave Link  701 at Tue Nov 21 11:46:54 2023, MaxMem=   104857600 cpu:               7.4 elap:               8.1
 (Enter /home/sekinelabo/g16/l702.exe)
 L702 exits ... SP integral derivatives will be done elsewhere.
 Leave Link  702 at Tue Nov 21 11:46:55 2023, MaxMem=   104857600 cpu:               0.6 elap:               0.8
 (Enter /home/sekinelabo/g16/l703.exe)
 Integral derivatives from FoFJK, PRISM(SPDF).
 Compute integral first derivatives, UseDBF=F ICtDFT=           0.
 Calling FoFJK, ICntrl=      2127 FMM=F ISym2X=0 I1Cent= 0 IOpClX= 1 NMat=1 NMatS=1 NMatT=0.
 FoFJK:  IHMeth= 1 ICntrl=    2127 DoSepK=F KAlg= 0 I1Cent=           0 FoldK=F
 IRaf=         0 NMat=       1 IRICut=       1 DoRegI=T DoRafI=F ISym2E= 0 IDoP0=0 IntGTp=1.
 FoFCou: FMM=F IPFlag=           0 FMFlag=      100000 FMFlg1=         800
         NFxFlg=           0 DoJE=F BraDBF=F KetDBF=F FulRan=T
         wScrn=  0.000000 ICntrl=      2127 IOpCl=  1 I1Cent=           0 NGrid=           0
         NMat0=    1 NMatS0=      1 NMatT0=    0 NMatD0=    1 NMtDS0=    0 NMtDT0=    0
 Symmetry not used in FoFCou.
 Leave Link  703 at Tue Nov 21 11:47:20 2023, MaxMem=   104857600 cpu:              23.1 elap:              24.7
 (Enter /home/sekinelabo/g16/l716.exe)
 Dipole        = 5.08584810D-02 6.58370586D-02 2.05938141D-01
 ***** Axes restored to original set *****
 -------------------------------------------------------------------
 Center     Atomic                   Forces (Hartrees/Bohr)
 Number     Number              X              Y              Z
 -------------------------------------------------------------------
      1       11          -0.000000000   -0.000000013   -0.000000001
      2       11           0.000233450   -0.000389115   -0.000051610
      3       11          -0.000233468    0.000389130    0.000051614
      4       11           0.002957755    0.005237559   -0.000074495
      5       11          -0.001156146   -0.005237064    0.001129399
      6       11           0.002140146    0.001141844   -0.005309426
      7       11          -0.003941736   -0.001142341    0.004254518
 -------------------------------------------------------------------
 Cartesian Forces:  Max     0.005309426 RMS     0.002541646
 Z-matrix is all fixed cartesians, so copy forces.
 Force constants in Cartesian coordinates: 
                1             2             3             4             5 
      1  0.100000D+01
      2  0.000000D+00  0.100000D+01
      3  0.000000D+00  0.000000D+00  0.100000D+01
      4  0.000000D+00  0.000000D+00  0.000000D+00  0.925169D-02
      5  0.000000D+00  0.000000D+00  0.000000D+00 -0.154243D-01  0.257153D-01
      6  0.000000D+00  0.000000D+00  0.000000D+00 -0.201507D-02  0.335950D-02
      7  0.000000D+00  0.000000D+00  0.000000D+00 -0.925169D-02  0.154243D-01
      8  0.000000D+00  0.000000D+00  0.000000D+00  0.154243D-01 -0.257153D-01
      9  0.000000D+00  0.000000D+00  0.000000D+00  0.201507D-02 -0.335950D-02
     10  0.000000D+00  0.000000D+00  0.000000D+00  0.000000D+00  0.000000D+00
     11  0.000000D+00  0.000000D+00  0.000000D+00  0.000000D+00  0.000000D+00
     12  0.000000D+00  0.000000D+00  0.000000D+00  0.000000D+00  0.000000D+00
     13  0.000000D+00  0.000000D+00  0.000000D+00  0.000000D+00  0.000000D+00
     14  0.000000D+00  0.000000D+00  0.000000D+00  0.000000D+00  0.000000D+00
     15  0.000000D+00  0.000000D+00  0.000000D+00  0.000000D+00  0.000000D+00
     16  0.000000D+00  0.000000D+00  0.000000D+00  0.000000D+00  0.000000D+00
     17  0.000000D+00  0.000000D+00  0.000000D+00  0.000000D+00  0.000000D+00
     18  0.000000D+00  0.000000D+00  0.000000D+00  0.000000D+00  0.000000D+00
     19  0.000000D+00  0.000000D+00  0.000000D+00  0.000000D+00  0.000000D+00
     20  0.000000D+00  0.000000D+00  0.000000D+00  0.000000D+00  0.000000D+00
     21  0.000000D+00  0.000000D+00  0.000000D+00  0.000000D+00  0.000000D+00
                6             7             8             9            10 
      6  0.438892D-03
      7  0.201507D-02  0.925169D-02
      8 -0.335950D-02 -0.154243D-01  0.257153D-01
      9 -0.438892D-03 -0.201507D-02  0.335950D-02  0.438892D-03
     10  0.000000D+00  0.000000D+00  0.000000D+00  0.000000D+00  0.146063D-01
     11  0.000000D+00  0.000000D+00  0.000000D+00  0.000000D+00  0.157641D-01
     12  0.000000D+00  0.000000D+00  0.000000D+00  0.000000D+00  0.443857D-02
     13  0.000000D+00  0.000000D+00  0.000000D+00  0.000000D+00 -0.143751D-01
     14  0.000000D+00  0.000000D+00  0.000000D+00  0.000000D+00 -0.998946D-02
     15  0.000000D+00  0.000000D+00  0.000000D+00  0.000000D+00 -0.518783D-02
     16  0.000000D+00  0.000000D+00  0.000000D+00  0.000000D+00 -0.233479D-03
     17  0.000000D+00  0.000000D+00  0.000000D+00  0.000000D+00 -0.573564D-02
     18  0.000000D+00  0.000000D+00  0.000000D+00  0.000000D+00  0.752399D-03
     19  0.000000D+00  0.000000D+00  0.000000D+00  0.000000D+00  0.226880D-05
     20  0.000000D+00  0.000000D+00  0.000000D+00  0.000000D+00 -0.389938D-04
     21  0.000000D+00  0.000000D+00  0.000000D+00  0.000000D+00 -0.313974D-05
               11            12            13            14            15 
     11  0.395522D-01
     12  0.144793D-02  0.196712D-02
     13 -0.158892D-01 -0.429479D-02  0.339885D-01
     14 -0.426452D-01  0.175611D-02  0.110121D-01  0.519827D-01
     15 -0.104396D-02 -0.241601D-02  0.113702D-01 -0.335170D-02  0.121929D-01
     16  0.125807D-03 -0.138953D-03 -0.173334D-01 -0.495536D-03 -0.110865D-01
     17  0.308047D-02 -0.328697D-02  0.478864D-02 -0.935083D-02  0.458554D-02
     18 -0.404975D-03  0.442210D-03 -0.498865D-02  0.207899D-02 -0.142654D-01
     19  0.000000D+00 -0.482479D-05 -0.227999D-02 -0.527117D-03  0.490408D-02
     20  0.125372D-04  0.829236D-04  0.884219D-04  0.133461D-04 -0.189876D-03
     21  0.100948D-05  0.667692D-05 -0.208679D-02 -0.483401D-03  0.448856D-02
               16            17            18            19            20 
     16  0.416005D-01
     17  0.349105D-02  0.684287D-02
     18 -0.100661D-01 -0.526470D-02  0.477967D-01
     19 -0.240336D-01 -0.254405D-02  0.143023D-01  0.263113D-01
     20 -0.312132D-02 -0.572509D-03  0.359069D-02  0.307189D-02  0.546626D-03
     21  0.212915D-01  0.396613D-02 -0.339734D-01 -0.192016D-01 -0.348373D-02
               21 
     21  0.294782D-01
 Leave Link  716 at Tue Nov 21 11:47:21 2023, MaxMem=   104857600 cpu:               0.9 elap:               1.1
 (Enter /home/sekinelabo/g16/l103.exe)

 GradGradGradGradGradGradGradGradGradGradGradGradGradGradGradGradGradGrad
 Berny optimization.
 Search for a local minimum.
 Step number   1 out of a maximum of    2
 All quantities printed in internal units (Hartrees-Bohrs-Radians)
 Second derivative matrix not updated -- first step.
 ITU=  0
     Eigenvalues ---   -0.00000  -0.00000   0.00000   0.00000   0.00000
     Eigenvalues ---    0.00038   0.01531   0.02891   0.04035   0.06098
     Eigenvalues ---    0.07081   0.09756   0.10373   0.52167   0.85714
 Eigenvalue     1 is  -6.66D-16 should be greater than     0.000000 Eigenvector:
                          Z2        Z7        X2        Z6        X7
   1                    0.57025  -0.53440   0.36717  -0.32852  -0.18163
                          Z3        Y2        Z4        X5        Y3
   1                    0.17430   0.12940   0.12112  -0.09906  -0.09332
 Eigenvalue     2 is  -6.66D-16 should be greater than     0.000000 Eigenvector:
                          Z3        Z2        X3        X2        Y2
   1                    0.56547  -0.49150  -0.31009   0.28107   0.25992
                          Y7        Y3        Z4        Y4        X4
   1                    0.24173  -0.23274  -0.19869  -0.10509   0.09556
 Eigenvalue     3 is   4.44D-16 Eigenvector:
                          Z3        Z4        X3        Z5        X2
   1                    0.61301  -0.42980   0.35052  -0.31620  -0.25204
                          Z2        Y3        Y2        Y7        Z6
   1                    0.21096   0.16170  -0.14720  -0.11152  -0.10677
 Eigenvalue     4 is   6.66D-16 Eigenvector:
                          Z4        Z2        Z3        Z7        Y6
   1                    0.61276  -0.41359   0.29308  -0.28773   0.27813
                          X3        Y7        X2        Z6        Y3
   1                    0.23959  -0.23455  -0.18242  -0.15830   0.13392
 Eigenvalue     5 is   1.33D-15 Eigenvector:
                          Z5        Y6        Z7        X6        X3
   1                    0.56410  -0.47577  -0.31727   0.26326   0.23700
                          Y7        Y4        X2        X7        Z2
   1                    0.20964   0.20277  -0.19220  -0.15237  -0.14205
 Quadratic step=3.174D+00 exceeds max=3.000D-01 adjusted using Lamda=-4.233D-03.
 Angle between NR and scaled steps=  27.46 degrees.
 Angle between quadratic step and forces=  59.43 degrees.
 Linear search not attempted -- first point.
 B after Tr=     0.000000   -0.000000    0.000000
         Rot=    1.000000    0.000000   -0.000000    0.000000 Ang=   0.00 deg.
 Variable       Old X    -DE/DX   Delta X   Delta X   Delta X     New X
                                 (Linear)    (Quad)   (Total)
    X1       17.78707  -0.00000   0.00000  -0.00000  -0.00000  17.78707
    Y1       56.63793  -0.00000   0.00000   0.00000   0.00000  56.63793
    Z1        3.34294  -0.00000   0.00000  -0.00000  -0.00000   3.34294
    X2       20.16621   0.00023   0.00000   0.00312   0.00312  20.16933
    Y2        4.25043  -0.00039   0.00000  -0.00515  -0.00515   4.24528
    Z2       55.98238  -0.00005   0.00000  -0.00085  -0.00085  55.98153
    X3       17.23886  -0.00023   0.00000  -0.00311  -0.00311  17.23575
    Y3        9.13089   0.00039   0.00000   0.00517   0.00517   9.13606
    Z3       56.61997   0.00005   0.00000   0.00085   0.00085  56.62083
    X4       12.67415   0.00296   0.00000   0.17160   0.17160  12.84575
    Y4        9.05171   0.00524   0.00000   0.05305   0.05305   9.10476
    Z4        4.23340  -0.00007   0.00000  -0.07419  -0.07419   4.15921
    X5       10.30458  -0.00116   0.00000  -0.01442  -0.01442  10.29016
    Y5        4.22883  -0.00524   0.00000   0.00126   0.00126   4.23009
    Z5        3.84831   0.00113   0.00000   0.10016   0.10016   3.94848
    X6        4.59430   0.00214   0.00000  -0.02515  -0.02515   4.56915
    Y6        4.11136   0.00114   0.00000   0.07791   0.07791   4.18927
    Z6        1.18088  -0.00531   0.00000  -0.02782  -0.02782   1.15307
    X7        0.96665  -0.00394   0.00000  -0.13203  -0.13203   0.83462
    Y7        3.58296  -0.00114   0.00000  -0.13223  -0.13223   3.45073
    Z7        5.12201   0.00425   0.00000   0.00184   0.00184   5.12385
         Item               Value     Threshold  Converged?
 Maximum Force            0.005309     0.000450     NO 
 RMS     Force            0.002542     0.000300     NO 
 Maximum Displacement     0.171602     0.001800     NO 
 RMS     Displacement     0.065639     0.001200     NO 
 Predicted change in Energy=-1.082372D-03
 GradGradGradGradGradGradGradGradGradGradGradGradGradGradGradGradGradGrad

 Leave Link  103 at Tue Nov 21 11:47:24 2023, MaxMem=   104857600 cpu:               2.9 elap:               3.2
 (Enter /home/sekinelabo/g16/l9999.exe)
 1\1\GINC-SEKINELABO-XA7R-R37\Force\UB3LYP\6-311+G(d)\Na7(2)\SEKINELABO
 \21-Nov-2023\0\\#P B3LYP/6-311+g(d) force\\DPGEN\\0,2\Na,9.41251,29.97
 15,1.76901\Na,10.6715,2.24923,29.6246\Na,9.12241,4.83186,29.962\Na,6.7
 0687,4.78996,2.24022\Na,5.45295,2.2378,2.03644\Na,2.4312,2.17564,0.624
 896\Na,0.511528,1.89602,2.71045\\Version=ES64L-G16RevB.01\State=2-A\HF
 =-1136.0890135\S2=0.750009\S2-1=0.\S2A=0.75\RMSD=6.509e-09\RMSF=2.542e
 -03\Dipole=-0.1717918,0.0909953,0.1074199\Quadrupole=0.63431,3.8428138
 ,-4.4771238,-1.226243,-0.7140494,-1.6347418\PG=C01 [X(Na7)]\\@


 HERE WE GO......
 SLIDING DOWN THE RAZOR BLADE OF LIFE......
                                 TOM LEHRER
 Job cpu time:       0 days  0 hours  6 minutes 39.5 seconds.
 Elapsed time:       0 days  0 hours  7 minutes  7.4 seconds.
 File lengths (MBytes):  RWF=     46 Int=      0 D2E=      0 Chk=      4 Scr=      1
 Normal termination of Gaussian 16 at Tue Nov 21 11:47:26 2023.
