0.000000000000000000e+00 0.000000000000000000e+00 0.000000000000000000e+00 -4.897475000000000023e+00 0.000000000000000000e+00 2.192630999999999997e+00 0.000000000000000000e+00 0.000000000000000000e+00 5.145347000000000115e+00 -4.762279999999999847e-01 -2.072340000000000071e+00 1.564840000000000009e+00
0.000000000000000000e+00 0.000000000000000000e+00 0.000000000000000000e+00 -1.249581000000000053e+00 0.000000000000000000e+00 -3.569898999999999933e+00 0.000000000000000000e+00 0.000000000000000000e+00 4.042240999999999751e+00 5.159199999999999897e-02 -3.305222999999999800e+00 6.456019999999999648e+00
0.000000000000000000e+00 0.000000000000000000e+00 0.000000000000000000e+00 -3.380034999999999901e+00 0.000000000000000000e+00 1.211570000000000036e+00 0.000000000000000000e+00 0.000000000000000000e+00 3.739991999999999983e+00 -2.997075000000000156e+00 -6.087099999999999733e-01 5.122194999999999609e+00
0.000000000000000000e+00 0.000000000000000000e+00 0.000000000000000000e+00 -3.086825000000000152e+00 0.000000000000000000e+00 4.009119999999999906e-01 0.000000000000000000e+00 0.000000000000000000e+00 3.688947999999999894e+00 1.540413000000000032e+00 -3.128150000000000097e-01 7.488502000000000436e+00
0.000000000000000000e+00 0.000000000000000000e+00 0.000000000000000000e+00 -2.648928999999999867e+00 0.000000000000000000e+00 -3.190890000000000115e-01 0.000000000000000000e+00 0.000000000000000000e+00 5.061886999999999581e+00 -2.107650000000000079e-01 -3.669210999999999778e+00 6.722080000000000055e+00
0.000000000000000000e+00 0.000000000000000000e+00 0.000000000000000000e+00 -4.469238999999999962e+00 0.000000000000000000e+00 1.110055999999999932e+00 0.000000000000000000e+00 0.000000000000000000e+00 5.207557000000000436e+00 -1.995349000000000039e+00 -1.929402000000000061e+00 6.181116000000000277e+00
0.000000000000000000e+00 0.000000000000000000e+00 0.000000000000000000e+00 -2.248851000000000155e+00 0.000000000000000000e+00 -3.957958000000000087e+00 0.000000000000000000e+00 0.000000000000000000e+00 4.878286000000000122e+00 -4.035585000000000200e+00 -3.072380000000000111e-01 4.947938999999999865e+00
0.000000000000000000e+00 0.000000000000000000e+00 0.000000000000000000e+00 -3.077738999999999780e+00 0.000000000000000000e+00 2.518170000000000130e-01 0.000000000000000000e+00 0.000000000000000000e+00 4.903728000000000087e+00 3.835202999999999918e+00 -1.284845999999999933e+00 7.893350000000000088e-01
0.000000000000000000e+00 0.000000000000000000e+00 0.000000000000000000e+00 -2.777277000000000218e+00 0.000000000000000000e+00 -2.362910000000000010e-01 0.000000000000000000e+00 0.000000000000000000e+00 2.483703999999999912e+00 2.307659999999999989e-01 -7.198699999999999544e-02 -2.218703999999999787e+00
0.000000000000000000e+00 0.000000000000000000e+00 0.000000000000000000e+00 -1.243479000000000001e+00 0.000000000000000000e+00 -4.895933999999999564e+00 0.000000000000000000e+00 0.000000000000000000e+00 3.727018000000000164e+00 -8.568639999999999590e-01 -4.095569000000000237e+00 4.717669999999999919e-01
