-1.766460795323310231e+04
-1.766530034309211624e+04
-1.766552073512985953e+04
-1.766553539923706194e+04
-1.766530175299567054e+04
-1.766510863743381196e+04
-1.766492940351573998e+04
-1.766481222881032591e+04
-1.766411822539774585e+04
-1.766469279417207508e+04
