2.114707328150841337e-01 4.965249529488339753e-01 -4.396188762423602348e-01 1.317377832910596736e-01 3.797776793464053679e-03 1.877078241032617834e-01 -2.419725548917464886e-01 -2.094209977834103273e-02 -1.580846508935674077e-01 -1.012359612143973048e-01 -4.793806299639569724e-01 4.099957030326658591e-01
-1.157144613771665803e-01 -9.660920927114739071e-03 -2.123938617704191900e-01 1.152522798346893584e-01 4.342490754240774069e-03 3.245151033385424988e-01 3.573525157199795854e-03 -3.000954834029799789e-01 1.127337298138338800e-01 -3.111292192655101818e-03 3.054139649979213944e-01 -2.248549713819572304e-01
-1.840021442326478240e-01 1.902400523940659879e-02 -6.868784938458201428e-02 4.769009036040460781e-01 -4.347787227190836115e-03 7.542228902955157299e-02 -3.688729614511732646e-01 -3.502223318437122646e-02 -5.934852206746422248e-02 7.597425350184244808e-02 2.034601517215546204e-02 5.261408242249466377e-02
-7.809675075899528279e-03 1.377082967016009002e-04 3.930558856101422360e-02 3.883708210423741924e-02 1.303549410524863002e-03 2.385053191480203047e-02 1.053004128497935649e-01 -3.173826568913062224e-02 2.895150844873210505e-01 -1.363278198781314732e-01 3.029700798190415253e-02 -3.526712049631373080e-01
6.009013112460779293e-01 -2.457666292963522642e-03 1.053353284336100149e-01 -5.940173876509546869e-01 7.214567488996008471e-03 -6.223540835765264262e-02 -3.386806487986508685e-02 -3.842281564423464246e-01 1.214044674096244891e-01 2.698414128474185478e-02 3.794712552463139210e-01 -1.645043874855818544e-01
-3.866611401429213002e-01 1.358416756522102869e-03 9.604541772333695382e-02 3.924144981625100059e-01 9.782739804966154862e-03 -1.066145037841510768e-01 7.026660970024017905e-02 8.425433765101540684e-02 -6.204504386385527315e-02 -7.601996771982889867e-02 -9.539549421250366479e-02 7.261412992466940997e-02
-2.084325113803129348e-01 -1.085159889952906761e-03 -2.368528710096685641e-01 1.951114191123007879e-01 3.746097615650345906e-04 3.260429043853316222e-01 -3.938659888611643067e-01 -3.008237227225797270e-02 -7.572933019445271530e-02 4.071870297071089606e-01 3.079292240064584324e-02 -1.346065175914289321e-02
1.051272747486007783e-03 -1.364515413724795047e-02 9.329402858094865136e-02 -4.339981357347929419e-02 1.134211400118573937e-02 -4.135696909884729183e-02 1.892506403937539994e-01 -5.600665332424527298e-02 -2.276468811135168857e-01 -1.469020995677607078e-01 5.830974488237496145e-02 1.757098216314155192e-01
3.125545361318189941e-01 6.298966724339538636e-02 8.573188391125992069e-01 -1.735520488359739155e-01 -4.627471852194572910e-03 -2.650200798008382416e-02 -1.673509074528013452e-01 6.106473356948660149e-03 1.383684583460687234e+00 2.834836873488878750e-02 -6.446866874814946580e-02 -2.214501414593202711e+00
-8.450327187966830134e-02 -2.470991807529337725e-01 1.734334181263060271e-01 2.974483782134336798e-02 -7.070847952606423847e-02 1.543115566924919690e-01 -4.009378601129134825e-04 -4.845820235112548169e-02 -2.451226193232787509e-01 5.515937191843785226e-02 3.662658112080560691e-01 -8.262235549551925906e-02
