 Entering Gaussian System, Link 0=g16
 Initial command:
 /home/sekinelabo/g16/l1.exe "/home/sekinelabo/g16temp/Gau-934196.inp" -scrdir="/home/sekinelabo/g16temp/"
 Entering Link 1 = /home/sekinelabo/g16/l1.exe PID=    934220.
  
 Copyright (c) 1988-2017, Gaussian, Inc.  All Rights Reserved.
  
 This is part of the Gaussian(R) 16 program.  It is based on
 the Gaussian(R) 09 system (copyright 2009, Gaussian, Inc.),
 the Gaussian(R) 03 system (copyright 2003, Gaussian, Inc.),
 the Gaussian(R) 98 system (copyright 1998, Gaussian, Inc.),
 the Gaussian(R) 94 system (copyright 1995, Gaussian, Inc.),
 the Gaussian 92(TM) system (copyright 1992, Gaussian, Inc.),
 the Gaussian 90(TM) system (copyright 1990, Gaussian, Inc.),
 the Gaussian 88(TM) system (copyright 1988, Gaussian, Inc.),
 the Gaussian 86(TM) system (copyright 1986, Carnegie Mellon
 University), and the Gaussian 82(TM) system (copyright 1983,
 Carnegie Mellon University). Gaussian is a federally registered
 trademark of Gaussian, Inc.
  
 This software contains proprietary and confidential information,
 including trade secrets, belonging to Gaussian, Inc.
  
 This software is provided under written license and may be
 used, copied, transmitted, or stored only in accord with that
 written license.
  
 The following legend is applicable only to US Government
 contracts under FAR:
  
                    RESTRICTED RIGHTS LEGEND
  
 Use, reproduction and disclosure by the US Government is
 subject to restrictions as set forth in subparagraphs (a)
 and (c) of the Commercial Computer Software - Restricted
 Rights clause in FAR 52.227-19.
  
 Gaussian, Inc.
 340 Quinnipiac St., Bldg. 40, Wallingford CT 06492
  
  
 ---------------------------------------------------------------
 Warning -- This program may not be used in any manner that
 competes with the business of Gaussian, Inc. or will provide
 assistance to any competitor of Gaussian, Inc.  The licensee
 of this program is prohibited from giving any competitor of
 Gaussian, Inc. access to this program.  By using this program,
 the user acknowledges that Gaussian, Inc. is engaged in the
 business of creating and licensing software in the field of
 computational chemistry and represents and warrants to the
 licensee that it is not a competitor of Gaussian, Inc. and that
 it will not use this program in any manner prohibited above.
 ---------------------------------------------------------------
  

 Cite this work as:
 Gaussian 16, Revision B.01,
 M. J. Frisch, G. W. Trucks, H. B. Schlegel, G. E. Scuseria, 
 M. A. Robb, J. R. Cheeseman, G. Scalmani, V. Barone, 
 G. A. Petersson, H. Nakatsuji, X. Li, M. Caricato, A. V. Marenich, 
 J. Bloino, B. G. Janesko, R. Gomperts, B. Mennucci, H. P. Hratchian, 
 J. V. Ortiz, A. F. Izmaylov, J. L. Sonnenberg, D. Williams-Young, 
 F. Ding, F. Lipparini, F. Egidi, J. Goings, B. Peng, A. Petrone, 
 T. Henderson, D. Ranasinghe, V. G. Zakrzewski, J. Gao, N. Rega, 
 G. Zheng, W. Liang, M. Hada, M. Ehara, K. Toyota, R. Fukuda, 
 J. Hasegawa, M. Ishida, T. Nakajima, Y. Honda, O. Kitao, H. Nakai, 
 T. Vreven, K. Throssell, J. A. Montgomery, Jr., J. E. Peralta, 
 F. Ogliaro, M. J. Bearpark, J. J. Heyd, E. N. Brothers, K. N. Kudin, 
 V. N. Staroverov, T. A. Keith, R. Kobayashi, J. Normand, 
 K. Raghavachari, A. P. Rendell, J. C. Burant, S. S. Iyengar, 
 J. Tomasi, M. Cossi, J. M. Millam, M. Klene, C. Adamo, R. Cammi, 
 J. W. Ochterski, R. L. Martin, K. Morokuma, O. Farkas, 
 J. B. Foresman, and D. J. Fox, Gaussian, Inc., Wallingford CT, 2016.
 
 ******************************************
 Gaussian 16:  ES64L-G16RevB.01 20-Dec-2017
                21-Nov-2023 
 ******************************************
 %nprocshared=14
 Will use up to   14 processors via shared memory.
 -------------------------
 #P B3LYP/6-311+g(d) force
 -------------------------
 1/10=7,30=1,38=1/1,3;
 2/12=2,17=6,18=5,40=1/2;
 3/5=4,6=6,7=11,11=2,25=1,30=1,71=1,74=-5/1,2,3;
 4//1;
 5/5=2,38=5/2;
 6/7=2,8=2,9=2,10=2,28=1/1;
 7/29=1/1,2,3,16;
 1/10=7,30=1/3;
 99//99;
 Leave Link    1 at Tue Nov 21 11:40:17 2023, MaxMem=           0 cpu:               0.5 elap:               0.4
 (Enter /home/sekinelabo/g16/l101.exe)
 -----
 DPGEN
 -----
 Symbolic Z-matrix:
 Charge =  0 Multiplicity = 2
 Na                    9.86067   29.8192   1.42745 
 Na                    10.4772   2.14167   29.3487 
 Na                    9.12574   4.9989    29.9957 
 Na                    6.55498   5.1227    1.92177 
 Na                    5.51884   2.09097   2.11288 
 Na                    2.70962   2.30589   1.0919 
 Na                    0.06192   1.67267   3.06933 
 
 ITRead=  0  0  0  0  0  0  0
 MicOpt= -1 -1 -1 -1 -1 -1 -1
 NAtoms=      7 NQM=        7 NQMF=       0 NMMI=      0 NMMIF=      0
                NMic=       0 NMicF=      0.
                    Isotopes and Nuclear Properties:
 (Nuclear quadrupole moments (NQMom) in fm**2, nuclear magnetic moments (NMagM)
  in nuclear magnetons)

  Atom         1           2           3           4           5           6           7
 IAtWgt=          23          23          23          23          23          23          23
 AtmWgt=  22.9897697  22.9897697  22.9897697  22.9897697  22.9897697  22.9897697  22.9897697
 NucSpn=           3           3           3           3           3           3           3
 AtZEff=  -0.0000000  -0.0000000  -0.0000000  -0.0000000  -0.0000000  -0.0000000  -0.0000000
 NQMom=   10.4000000  10.4000000  10.4000000  10.4000000  10.4000000  10.4000000  10.4000000
 NMagM=    2.2175200   2.2175200   2.2175200   2.2175200   2.2175200   2.2175200   2.2175200
 AtZNuc=  11.0000000  11.0000000  11.0000000  11.0000000  11.0000000  11.0000000  11.0000000
 Leave Link  101 at Tue Nov 21 11:40:20 2023, MaxMem=   104857600 cpu:               2.5 elap:               2.7
 (Enter /home/sekinelabo/g16/l103.exe)

 GradGradGradGradGradGradGradGradGradGradGradGradGradGradGradGradGradGrad
 Berny optimization.
 Initialization pass.
 Trust Radius=3.00D-01 FncErr=1.00D-07 GrdErr=1.00D-07 EigMax=2.50D+02 EigMin=1.00D-04
 Number of steps in this run=      2 maximum allowed number of steps=      2.
 GradGradGradGradGradGradGradGradGradGradGradGradGradGradGradGradGradGrad

 Leave Link  103 at Tue Nov 21 11:40:20 2023, MaxMem=   104857600 cpu:               0.5 elap:               0.4
 (Enter /home/sekinelabo/g16/l202.exe)
                          Input orientation:                          
 ---------------------------------------------------------------------
 Center     Atomic      Atomic             Coordinates (Angstroms)
 Number     Number       Type             X           Y           Z
 ---------------------------------------------------------------------
      1         11           0        9.860670   29.819200    1.427450
      2         11           0       10.477200    2.141670   29.348700
      3         11           0        9.125740    4.998900   29.995700
      4         11           0        6.554980    5.122700    1.921770
      5         11           0        5.518840    2.090970    2.112880
      6         11           0        2.709620    2.305890    1.091900
      7         11           0        0.061921    1.672670    3.069330
 ---------------------------------------------------------------------
                    Distance matrix (angstroms):
                    1          2          3          4          5
     1  Na   0.000000
     2  Na  39.319486   0.000000
     3  Na  37.851451   3.226270   0.000000
     4  Na  24.921658  27.865872  28.191660   0.000000
     5  Na  28.074473  27.683529  28.265128   3.209594   0.000000
     6  Na  28.429427  29.305443  29.729591   4.838377   2.996716
     7  Na  29.848591  28.271952  28.605000   7.441735   5.555874
                    6          7
     6  Na   0.000000
     7  Na   3.364745   0.000000
 Stoichiometry    Na7(2)
 Framework group  C1[X(Na7)]
 Deg. of freedom    15
 Full point group                 C1      NOp   1
 Largest Abelian subgroup         C1      NOp   1
 Largest concise Abelian subgroup C1      NOp   1
                         Standard orientation:                         
 ---------------------------------------------------------------------
 Center     Atomic      Atomic             Coordinates (Angstroms)
 Number     Number       Type             X           Y           Z
 ---------------------------------------------------------------------
      1         11           0      -14.473099   20.002355    0.378432
      2         11           0       20.377909    1.851490   -1.027027
      3         11           0       19.944208    4.263812    1.070930
      4         11           0       -6.921225   -3.598835   -2.275257
      5         11           0       -5.952711   -6.644143   -1.975962
      6         11           0       -7.345499   -7.518672    0.529162
      7         11           0       -5.629582   -8.356006    3.299722
 ---------------------------------------------------------------------
 Rotational constants (GHZ):           0.0350186           0.0181065           0.0122355
 Leave Link  202 at Tue Nov 21 11:40:21 2023, MaxMem=   104857600 cpu:               0.8 elap:               0.9
 (Enter /home/sekinelabo/g16/l301.exe)
 Standard basis: 6-311+G(d) (5D, 7F)
 Ernie: Thresh=  0.10000D-02 Tol=  0.10000D-05 Strict=F.
 There are   217 symmetry adapted cartesian basis functions of A   symmetry.
 There are   210 symmetry adapted basis functions of A   symmetry.
   210 basis functions,   350 primitive gaussians,   217 cartesian basis functions
    39 alpha electrons       38 beta electrons
       nuclear repulsion energy       144.1127058477 Hartrees.
 IExCor=  402 DFT=T Ex+Corr=B3LYP ExCW=0 ScaHFX=  0.200000
 ScaDFX=  0.800000  0.720000  1.000000  0.810000 ScalE2=  1.000000  1.000000
 IRadAn=      5 IRanWt=     -1 IRanGd=            0 ICorTp=0 IEmpDi=  4
 NAtoms=    7 NActive=    7 NUniq=    7 SFac= 1.00D+00 NAtFMM=   60 NAOKFM=F Big=F
 Integral buffers will be    131072 words long.
 Raffenetti 2 integral format.
 Two-electron integral symmetry is turned on.
 Leave Link  301 at Tue Nov 21 11:40:22 2023, MaxMem=   104857600 cpu:               0.7 elap:               0.7
 (Enter /home/sekinelabo/g16/l302.exe)
 NPDir=0 NMtPBC=     1 NCelOv=     1 NCel=       1 NClECP=     1 NCelD=      1
         NCelK=      1 NCelE2=     1 NClLst=     1 CellRange=     0.0.
 One-electron integrals computed using PRISM.
 One-electron integral symmetry used in STVInt
 NBasis=   210 RedAO= T EigKep=  9.23D-05  NBF=   210
 NBsUse=   210 1.00D-06 EigRej= -1.00D+00 NBFU=   210
 Precomputing XC quadrature grid using
 IXCGrd= 4 IRadAn=           5 IRanWt=          -1 IRanGd=           0 AccXCQ= 0.00D+00.
 Generated NRdTot=       0 NPtTot=           0 NUsed=           0 NTot=          32
 NSgBfM=   140   140   140   140   140 MxSgAt=     7 MxSgA2=     7.
 Leave Link  302 at Tue Nov 21 11:40:53 2023, MaxMem=   104857600 cpu:              29.2 elap:              31.2
 (Enter /home/sekinelabo/g16/l303.exe)
 DipDrv:  MaxL=1.
 Leave Link  303 at Tue Nov 21 11:40:56 2023, MaxMem=   104857600 cpu:               2.4 elap:               2.5
 (Enter /home/sekinelabo/g16/l401.exe)
 ExpMin= 7.60D-03 ExpMax= 3.62D+04 ExpMxC= 1.21D+03 IAcc=3 IRadAn=         5 AccDes= 0.00D+00
 Harris functional with IExCor=  402 and IRadAn=       5 diagonalized for initial guess.
 HarFok:  IExCor=  402 AccDes= 0.00D+00 IRadAn=         5 IDoV= 1 UseB2=F ITyADJ=14
 ICtDFT=  3500011 ScaDFX=  1.000000  1.000000  1.000000  1.000000
 FoFCou: FMM=F IPFlag=           0 FMFlag=      100000 FMFlg1=           0
         NFxFlg=           0 DoJE=T BraDBF=F KetDBF=T FulRan=T
         wScrn=  0.000000 ICntrl=       500 IOpCl=  0 I1Cent=   200000004 NGrid=           0
         NMat0=    1 NMatS0=      1 NMatT0=    0 NMatD0=    1 NMtDS0=    0 NMtDT0=    0
 Petite list used in FoFCou.
 Harris En= -1135.85858339764    
 JPrj=0 DoOrth=F DoCkMO=F.
 Initial guess <Sx>= 0.0000 <Sy>= 0.0000 <Sz>= 0.5000 <S**2>= 0.7500 S= 0.5000
 Leave Link  401 at Tue Nov 21 11:41:14 2023, MaxMem=   104857600 cpu:              16.5 elap:              17.4
 (Enter /home/sekinelabo/g16/l502.exe)
 Integral symmetry usage will be decided dynamically.
 UHF open shell SCF:
 Using DIIS extrapolation, IDIIS=  1040.
 NGot=   104857600 LenX=   104758426 LenY=   104710896
 Requested convergence on RMS density matrix=1.00D-08 within 128 cycles.
 Requested convergence on MAX density matrix=1.00D-06.
 Requested convergence on             energy=1.00D-06.
 No special actions if energy rises.
 Fock matrices will be formed incrementally for  20 cycles.

 Cycle   1  Pass 1  IDiag  1:
 FoFJK:  IHMeth= 1 ICntrl=       0 DoSepK=F KAlg= 0 I1Cent=           0 FoldK=F
 IRaf= 500000000 NMat=       1 IRICut=       1 DoRegI=T DoRafI=F ISym2E= 0 IDoP0=0 IntGTp=1.
 FoFCou: FMM=F IPFlag=           0 FMFlag=      100000 FMFlg1=           0
         NFxFlg=           0 DoJE=F BraDBF=F KetDBF=F FulRan=T
         wScrn=  0.000000 ICntrl=         0 IOpCl=  1 I1Cent=           0 NGrid=           0
         NMat0=    1 NMatS0=      1 NMatT0=    0 NMatD0=    1 NMtDS0=    0 NMtDT0=    0
 Symmetry not used in FoFCou.
 E= -1136.06482139263    
 DIIS: error= 2.00D-02 at cycle   1 NSaved=   1.
 NSaved= 1 IEnMin= 1 EnMin= -1136.06482139263     IErMin= 1 ErrMin= 2.00D-02
 ErrMax= 2.00D-02  0.00D+00 EMaxC= 1.00D-01 BMatC= 1.83D-01 BMatP= 1.83D-01
 IDIUse=3 WtCom= 8.00D-01 WtEn= 2.00D-01
 Coeff-Com:  0.100D+01
 Coeff-En:   0.100D+01
 Coeff:      0.100D+01
 Gap=     0.069 Goal=   None    Shift=    0.000
 Gap=     0.037 Goal=   None    Shift=    0.000
 GapD=    0.037 DampG=0.250 DampE=0.500 DampFc=0.2500 IDamp=-1.
 Damping current iteration by 2.50D-01
 RMSDP=2.66D-03 MaxDP=1.39D-01              OVMax= 1.35D-01

 Cycle   2  Pass 1  IDiag  1:
 RMSU=  6.52D-04    CP:  9.93D-01
 E= -1136.07247749216     Delta-E=       -0.007656099534 Rises=F Damp=T
 DIIS: error= 1.39D-02 at cycle   2 NSaved=   2.
 NSaved= 2 IEnMin= 2 EnMin= -1136.07247749216     IErMin= 2 ErrMin= 1.39D-02
 ErrMax= 1.39D-02  0.00D+00 EMaxC= 1.00D-01 BMatC= 7.09D-02 BMatP= 1.83D-01
 IDIUse=3 WtCom= 8.61D-01 WtEn= 1.39D-01
 Coeff-Com: -0.131D+01 0.231D+01
 Coeff-En:   0.000D+00 0.100D+01
 Coeff:     -0.113D+01 0.213D+01
 Gap=     0.049 Goal=   None    Shift=    0.000
 Gap=     0.053 Goal=   None    Shift=    0.000
 RMSDP=2.20D-03 MaxDP=1.27D-01 DE=-7.66D-03 OVMax= 9.77D-02

 Cycle   3  Pass 1  IDiag  1:
 RMSU=  1.14D-03    CP:  9.67D-01  3.00D+00
 E= -1136.08797998904     Delta-E=       -0.015502496881 Rises=F Damp=F
 DIIS: error= 8.99D-04 at cycle   3 NSaved=   3.
 NSaved= 3 IEnMin= 3 EnMin= -1136.08797998904     IErMin= 3 ErrMin= 8.99D-04
 ErrMax= 8.99D-04  0.00D+00 EMaxC= 1.00D-01 BMatC= 4.93D-04 BMatP= 7.09D-02
 IDIUse=3 WtCom= 9.91D-01 WtEn= 8.99D-03
 Coeff-Com:  0.798D-01-0.887D-01 0.101D+01
 Coeff-En:   0.000D+00 0.000D+00 0.100D+01
 Coeff:      0.791D-01-0.879D-01 0.101D+01
 Gap=     0.047 Goal=   None    Shift=    0.000
 Gap=     0.047 Goal=   None    Shift=    0.000
 RMSDP=5.40D-04 MaxDP=5.17D-02 DE=-1.55D-02 OVMax= 7.40D-02

 Cycle   4  Pass 1  IDiag  1:
 RMSU=  5.36D-04    CP:  9.64D-01  3.00D+00  9.88D-01
 E= -1136.08737253036     Delta-E=        0.000607458687 Rises=F Damp=F
 DIIS: error= 1.74D-03 at cycle   4 NSaved=   4.
 NSaved= 4 IEnMin= 3 EnMin= -1136.08797998904     IErMin= 3 ErrMin= 8.99D-04
 ErrMax= 1.74D-03  0.00D+00 EMaxC= 1.00D-01 BMatC= 7.40D-04 BMatP= 4.93D-04
 IDIUse=3 WtCom= 1.94D-01 WtEn= 8.06D-01
 Coeff-Com:  0.705D-01-0.928D-01 0.613D+00 0.410D+00
 Coeff-En:   0.000D+00 0.000D+00 0.708D+00 0.292D+00
 Coeff:      0.136D-01-0.180D-01 0.690D+00 0.315D+00
 Gap=     0.048 Goal=   None    Shift=    0.000
 Gap=     0.048 Goal=   None    Shift=    0.000
 RMSDP=2.78D-04 MaxDP=3.09D-02 DE= 6.07D-04 OVMax= 4.69D-02

 Cycle   5  Pass 1  IDiag  1:
 RMSU=  7.21D-05    CP:  9.64D-01  3.00D+00  1.09D+00  5.51D-01
 E= -1136.08831055060     Delta-E=       -0.000938020246 Rises=F Damp=F
 DIIS: error= 2.43D-04 at cycle   5 NSaved=   5.
 NSaved= 5 IEnMin= 5 EnMin= -1136.08831055060     IErMin= 5 ErrMin= 2.43D-04
 ErrMax= 2.43D-04  0.00D+00 EMaxC= 1.00D-01 BMatC= 6.00D-05 BMatP= 4.93D-04
 IDIUse=3 WtCom= 9.98D-01 WtEn= 2.43D-03
 Coeff-Com: -0.933D-02 0.124D-01 0.249D+00 0.503D-01 0.698D+00
 Coeff-En:   0.000D+00 0.000D+00 0.000D+00 0.000D+00 0.100D+01
 Coeff:     -0.930D-02 0.124D-01 0.248D+00 0.502D-01 0.698D+00
 Gap=     0.048 Goal=   None    Shift=    0.000
 Gap=     0.048 Goal=   None    Shift=    0.000
 RMSDP=4.59D-05 MaxDP=4.37D-03 DE=-9.38D-04 OVMax= 4.61D-03

 Cycle   6  Pass 1  IDiag  1:
 RMSU=  1.98D-05    CP:  9.64D-01  3.00D+00  1.11D+00  4.97D-01  7.04D-01
 E= -1136.08832808131     Delta-E=       -0.000017530710 Rises=F Damp=F
 DIIS: error= 6.15D-05 at cycle   6 NSaved=   6.
 NSaved= 6 IEnMin= 6 EnMin= -1136.08832808131     IErMin= 6 ErrMin= 6.15D-05
 ErrMax= 6.15D-05  0.00D+00 EMaxC= 1.00D-01 BMatC= 1.57D-06 BMatP= 6.00D-05
 IDIUse=1 WtCom= 1.00D+00 WtEn= 0.00D+00
 Coeff-Com: -0.140D-01 0.184D-01 0.464D-01-0.284D-01 0.348D+00 0.630D+00
 Coeff:     -0.140D-01 0.184D-01 0.464D-01-0.284D-01 0.348D+00 0.630D+00
 Gap=     0.048 Goal=   None    Shift=    0.000
 Gap=     0.048 Goal=   None    Shift=    0.000
 RMSDP=1.76D-05 MaxDP=1.19D-03 DE=-1.75D-05 OVMax= 1.99D-03

 Cycle   7  Pass 1  IDiag  1:
 RMSU=  1.00D-05    CP:  9.63D-01  3.00D+00  1.12D+00  4.97D-01  8.70D-01
                    CP:  8.01D-01
 E= -1136.08832972613     Delta-E=       -0.000001644816 Rises=F Damp=F
 DIIS: error= 9.58D-06 at cycle   7 NSaved=   7.
 NSaved= 7 IEnMin= 7 EnMin= -1136.08832972613     IErMin= 7 ErrMin= 9.58D-06
 ErrMax= 9.58D-06  0.00D+00 EMaxC= 1.00D-01 BMatC= 3.28D-08 BMatP= 1.57D-06
 IDIUse=1 WtCom= 1.00D+00 WtEn= 0.00D+00
 Coeff-Com: -0.145D-02 0.188D-02-0.654D-02-0.557D-02 0.174D-02 0.110D+00
 Coeff-Com:  0.900D+00
 Coeff:     -0.145D-02 0.188D-02-0.654D-02-0.557D-02 0.174D-02 0.110D+00
 Coeff:      0.900D+00
 Gap=     0.048 Goal=   None    Shift=    0.000
 Gap=     0.048 Goal=   None    Shift=    0.000
 RMSDP=3.96D-06 MaxDP=2.06D-04 DE=-1.64D-06 OVMax= 3.19D-04

 Cycle   8  Pass 1  IDiag  1:
 RMSU=  1.83D-06    CP:  9.63D-01  3.00D+00  1.12D+00  5.00D-01  8.68D-01
                    CP:  8.99D-01  9.83D-01
 E= -1136.08832976090     Delta-E=       -0.000000034776 Rises=F Damp=F
 DIIS: error= 2.51D-06 at cycle   8 NSaved=   8.
 NSaved= 8 IEnMin= 8 EnMin= -1136.08832976090     IErMin= 8 ErrMin= 2.51D-06
 ErrMax= 2.51D-06  0.00D+00 EMaxC= 1.00D-01 BMatC= 2.49D-09 BMatP= 3.28D-08
 IDIUse=1 WtCom= 1.00D+00 WtEn= 0.00D+00
 Coeff-Com:  0.493D-03-0.665D-03-0.309D-02 0.329D-03-0.158D-01-0.123D-01
 Coeff-Com:  0.225D+00 0.806D+00
 Coeff:      0.493D-03-0.665D-03-0.309D-02 0.329D-03-0.158D-01-0.123D-01
 Coeff:      0.225D+00 0.806D+00
 Gap=     0.048 Goal=   None    Shift=    0.000
 Gap=     0.048 Goal=   None    Shift=    0.000
 RMSDP=9.88D-07 MaxDP=4.60D-05 DE=-3.48D-08 OVMax= 6.98D-05

 Cycle   9  Pass 1  IDiag  1:
 RMSU=  2.89D-07    CP:  9.63D-01  3.00D+00  1.12D+00  5.00D-01  8.74D-01
                    CP:  9.12D-01  1.04D+00  1.00D+00
 E= -1136.08832976333     Delta-E=       -0.000000002423 Rises=F Damp=F
 DIIS: error= 3.81D-07 at cycle   9 NSaved=   9.
 NSaved= 9 IEnMin= 9 EnMin= -1136.08832976333     IErMin= 9 ErrMin= 3.81D-07
 ErrMax= 3.81D-07  0.00D+00 EMaxC= 1.00D-01 BMatC= 1.35D-10 BMatP= 2.49D-09
 IDIUse=1 WtCom= 1.00D+00 WtEn= 0.00D+00
 Coeff-Com:  0.327D-03-0.434D-03-0.184D-03 0.776D-03-0.499D-02-0.132D-01
 Coeff-Com: -0.177D-01 0.186D+00 0.850D+00
 Coeff:      0.327D-03-0.434D-03-0.184D-03 0.776D-03-0.499D-02-0.132D-01
 Coeff:     -0.177D-01 0.186D+00 0.850D+00
 Gap=     0.048 Goal=   None    Shift=    0.000
 Gap=     0.048 Goal=   None    Shift=    0.000
 RMSDP=2.62D-07 MaxDP=1.19D-05 DE=-2.42D-09 OVMax= 1.81D-05

 Cycle  10  Pass 1  IDiag  1:
 RMSU=  6.96D-08    CP:  9.63D-01  3.00D+00  1.12D+00  5.00D-01  8.74D-01
                    CP:  9.17D-01  1.05D+00  1.08D+00  1.03D+00
 E= -1136.08832976344     Delta-E=       -0.000000000110 Rises=F Damp=F
 DIIS: error= 9.81D-08 at cycle  10 NSaved=  10.
 NSaved=10 IEnMin=10 EnMin= -1136.08832976344     IErMin=10 ErrMin= 9.81D-08
 ErrMax= 9.81D-08  0.00D+00 EMaxC= 1.00D-01 BMatC= 6.11D-12 BMatP= 1.35D-10
 IDIUse=1 WtCom= 1.00D+00 WtEn= 0.00D+00
 Coeff-Com:  0.795D-04-0.105D-03 0.109D-04 0.191D-03-0.104D-02-0.369D-02
 Coeff-Com: -0.125D-01 0.357D-01 0.264D+00 0.718D+00
 Coeff:      0.795D-04-0.105D-03 0.109D-04 0.191D-03-0.104D-02-0.369D-02
 Coeff:     -0.125D-01 0.357D-01 0.264D+00 0.718D+00
 Gap=     0.048 Goal=   None    Shift=    0.000
 Gap=     0.048 Goal=   None    Shift=    0.000
 RMSDP=4.01D-08 MaxDP=1.67D-06 DE=-1.10D-10 OVMax= 2.56D-06

 Cycle  11  Pass 1  IDiag  1:
 RMSU=  1.90D-08    CP:  9.63D-01  3.00D+00  1.12D+00  5.00D-01  8.74D-01
                    CP:  9.18D-01  1.05D+00  1.10D+00  1.05D+00  9.79D-01
 E= -1136.08832976344     Delta-E=       -0.000000000002 Rises=F Damp=F
 DIIS: error= 3.47D-08 at cycle  11 NSaved=  11.
 NSaved=11 IEnMin=11 EnMin= -1136.08832976344     IErMin=11 ErrMin= 3.47D-08
 ErrMax= 3.47D-08  0.00D+00 EMaxC= 1.00D-01 BMatC= 5.75D-13 BMatP= 6.11D-12
 IDIUse=1 WtCom= 1.00D+00 WtEn= 0.00D+00
 Coeff-Com: -0.175D-05 0.252D-05 0.214D-04-0.426D-05 0.868D-04-0.193D-03
 Coeff-Com: -0.337D-02-0.211D-02 0.288D-01 0.241D+00 0.736D+00
 Coeff:     -0.175D-05 0.252D-05 0.214D-04-0.426D-05 0.868D-04-0.193D-03
 Coeff:     -0.337D-02-0.211D-02 0.288D-01 0.241D+00 0.736D+00
 Gap=     0.048 Goal=   None    Shift=    0.000
 Gap=     0.048 Goal=   None    Shift=    0.000
 RMSDP=1.35D-08 MaxDP=9.07D-07 DE=-1.59D-12 OVMax= 1.02D-06

 Cycle  12  Pass 1  IDiag  1:
 RMSU=  7.60D-09    CP:  9.63D-01  3.00D+00  1.12D+00  5.00D-01  8.74D-01
                    CP:  9.18D-01  1.05D+00  1.10D+00  1.06D+00  1.03D+00
                    CP:  8.14D-01
 E= -1136.08832976344     Delta-E=       -0.000000000001 Rises=F Damp=F
 DIIS: error= 1.48D-08 at cycle  12 NSaved=  12.
 NSaved=12 IEnMin=12 EnMin= -1136.08832976344     IErMin=12 ErrMin= 1.48D-08
 ErrMax= 1.48D-08  0.00D+00 EMaxC= 1.00D-01 BMatC= 7.59D-14 BMatP= 5.75D-13
 IDIUse=1 WtCom= 1.00D+00 WtEn= 0.00D+00
 Coeff-Com: -0.929D-05 0.124D-04 0.897D-05-0.215D-04 0.154D-03 0.285D-03
 Coeff-Com: -0.314D-03-0.442D-02-0.115D-01 0.261D-01 0.297D+00 0.693D+00
 Coeff:     -0.929D-05 0.124D-04 0.897D-05-0.215D-04 0.154D-03 0.285D-03
 Coeff:     -0.314D-03-0.442D-02-0.115D-01 0.261D-01 0.297D+00 0.693D+00
 Gap=     0.048 Goal=   None    Shift=    0.000
 Gap=     0.048 Goal=   None    Shift=    0.000
 RMSDP=4.08D-09 MaxDP=3.11D-07 DE=-9.09D-13 OVMax= 3.59D-07

 SCF Done:  E(UB3LYP) =  -1136.08832976     A.U. after   12 cycles
            NFock= 12  Conv=0.41D-08     -V/T= 2.0029
 <Sx>= 0.0000 <Sy>= 0.0000 <Sz>= 0.5000 <S**2>= 0.7500 S= 0.5000
 <L.S>= 0.000000000000E+00
 KE= 1.132842029866D+03 PE=-3.017082207342D+03 EE= 6.040391418646D+02
 Annihilation of the first spin contaminant:
 S**2 before annihilation     0.7500,   after     0.7500
 Leave Link  502 at Tue Nov 21 11:46:57 2023, MaxMem=   104857600 cpu:             320.4 elap:             343.2
 (Enter /home/sekinelabo/g16/l601.exe)
 Copying SCF densities to generalized density rwf, IOpCl= 1 IROHF=0.

 **********************************************************************

            Population analysis using the SCF Density.

 **********************************************************************

 Orbital symmetries:
 Alpha Orbitals:
       Occupied  (A) (A) (A) (A) (A) (A) (A) (A) (A) (A) (A) (A)
                 (A) (A) (A) (A) (A) (A) (A) (A) (A) (A) (A) (A)
                 (A) (A) (A) (A) (A) (A) (A) (A) (A) (A) (A) (A)
                 (A) (A) (A)
       Virtual   (A) (A) (A) (A) (A) (A) (A) (A) (A) (A) (A) (A)
                 (A) (A) (A) (A) (A) (A) (A) (A) (A) (A) (A) (A)
                 (A) (A) (A) (A) (A) (A) (A) (A) (A) (A) (A) (A)
                 (A) (A) (A) (A) (A) (A) (A) (A) (A) (A) (A) (A)
                 (A) (A) (A) (A) (A) (A) (A) (A) (A) (A) (A) (A)
                 (A) (A) (A) (A) (A) (A) (A) (A) (A) (A) (A) (A)
                 (A) (A) (A) (A) (A) (A) (A) (A) (A) (A) (A) (A)
                 (A) (A) (A) (A) (A) (A) (A) (A) (A) (A) (A) (A)
                 (A) (A) (A) (A) (A) (A) (A) (A) (A) (A) (A) (A)
                 (A) (A) (A) (A) (A) (A) (A) (A) (A) (A) (A) (A)
                 (A) (A) (A) (A) (A) (A) (A) (A) (A) (A) (A) (A)
                 (A) (A) (A) (A) (A) (A) (A) (A) (A) (A) (A) (A)
                 (A) (A) (A) (A) (A) (A) (A) (A) (A) (A) (A) (A)
                 (A) (A) (A) (A) (A) (A) (A) (A) (A) (A) (A) (A)
                 (A) (A) (A)
 Beta  Orbitals:
       Occupied  (A) (A) (A) (A) (A) (A) (A) (A) (A) (A) (A) (A)
                 (A) (A) (A) (A) (A) (A) (A) (A) (A) (A) (A) (A)
                 (A) (A) (A) (A) (A) (A) (A) (A) (A) (A) (A) (A)
                 (A) (A)
       Virtual   (A) (A) (A) (A) (A) (A) (A) (A) (A) (A) (A) (A)
                 (A) (A) (A) (A) (A) (A) (A) (A) (A) (A) (A) (A)
                 (A) (A) (A) (A) (A) (A) (A) (A) (A) (A) (A) (A)
                 (A) (A) (A) (A) (A) (A) (A) (A) (A) (A) (A) (A)
                 (A) (A) (A) (A) (A) (A) (A) (A) (A) (A) (A) (A)
                 (A) (A) (A) (A) (A) (A) (A) (A) (A) (A) (A) (A)
                 (A) (A) (A) (A) (A) (A) (A) (A) (A) (A) (A) (A)
                 (A) (A) (A) (A) (A) (A) (A) (A) (A) (A) (A) (A)
                 (A) (A) (A) (A) (A) (A) (A) (A) (A) (A) (A) (A)
                 (A) (A) (A) (A) (A) (A) (A) (A) (A) (A) (A) (A)
                 (A) (A) (A) (A) (A) (A) (A) (A) (A) (A) (A) (A)
                 (A) (A) (A) (A) (A) (A) (A) (A) (A) (A) (A) (A)
                 (A) (A) (A) (A) (A) (A) (A) (A) (A) (A) (A) (A)
                 (A) (A) (A) (A) (A) (A) (A) (A) (A) (A) (A) (A)
                 (A) (A) (A) (A)
 The electronic state is 2-A.
 Alpha  occ. eigenvalues --  -38.45787 -38.44675 -38.44619 -38.44340 -38.44340
 Alpha  occ. eigenvalues --  -38.43996 -38.43976  -2.21572  -2.20466  -2.20444
 Alpha  occ. eigenvalues --   -2.20103  -2.20100  -2.19828  -2.19730  -1.15185
 Alpha  occ. eigenvalues --   -1.15185  -1.15185  -1.14204  -1.14159  -1.14117
 Alpha  occ. eigenvalues --   -1.14104  -1.14101  -1.14018  -1.13811  -1.13774
 Alpha  occ. eigenvalues --   -1.13774  -1.13758  -1.13758  -1.13677  -1.13526
 Alpha  occ. eigenvalues --   -1.13488  -1.13450  -1.13398  -1.13396  -1.13345
 Alpha  occ. eigenvalues --   -0.15020  -0.12889  -0.12815  -0.11590
 Alpha virt. eigenvalues --   -0.06802  -0.05792  -0.04660  -0.03130  -0.02451
 Alpha virt. eigenvalues --   -0.02290  -0.02290  -0.02114  -0.02114  -0.02114
 Alpha virt. eigenvalues --   -0.01807  -0.01153  -0.00953  -0.00744   0.00034
 Alpha virt. eigenvalues --    0.00092   0.00104   0.00527   0.00529   0.00530
 Alpha virt. eigenvalues --    0.00610   0.00755   0.00775   0.00861   0.01131
 Alpha virt. eigenvalues --    0.01292   0.01293   0.01308   0.01319   0.01319
 Alpha virt. eigenvalues --    0.01417   0.01531   0.01590   0.01765   0.01811
 Alpha virt. eigenvalues --    0.01855   0.02078   0.02205   0.02252   0.02452
 Alpha virt. eigenvalues --    0.02493   0.02544   0.02736   0.02737   0.02962
 Alpha virt. eigenvalues --    0.03199   0.03528   0.03855   0.04192   0.04365
 Alpha virt. eigenvalues --    0.04950   0.04969   0.06766   0.07119   0.07221
 Alpha virt. eigenvalues --    0.07423   0.07456   0.07456   0.07481   0.07495
 Alpha virt. eigenvalues --    0.07496   0.07911   0.08003   0.08052   0.08289
 Alpha virt. eigenvalues --    0.08683   0.08770   0.09185   0.09540   0.09559
 Alpha virt. eigenvalues --    0.09559   0.10208   0.10424   0.10638   0.11677
 Alpha virt. eigenvalues --    0.12703   0.13999   0.14614   0.14862   0.15786
 Alpha virt. eigenvalues --    0.27412   0.28518   0.29218   0.29959   0.29959
 Alpha virt. eigenvalues --    0.30608   0.31555   0.31923   0.32579   0.33211
 Alpha virt. eigenvalues --    0.33211   0.33211   0.33211   0.33211   0.33586
 Alpha virt. eigenvalues --    0.33586   0.34270   0.35418   0.35807   0.35938
 Alpha virt. eigenvalues --    0.36315   0.37453   0.37453   0.38029   0.38894
 Alpha virt. eigenvalues --    0.41925   0.41925   0.41927   0.42022   0.42374
 Alpha virt. eigenvalues --    0.43080   0.43294   0.43375   0.43534   0.43534
 Alpha virt. eigenvalues --    0.43563   0.43876   0.43876   0.44095   0.44192
 Alpha virt. eigenvalues --    0.44889   0.45204   0.46230   0.46462   0.46641
 Alpha virt. eigenvalues --    0.46641   0.47166   0.47485   0.47709   0.50561
 Alpha virt. eigenvalues --    0.52257   0.54117   0.61217   0.63961   0.64874
 Alpha virt. eigenvalues --    0.73578   1.98652   2.00859   2.03257   2.07459
 Alpha virt. eigenvalues --    2.12312   2.12557   2.18653   4.41230   4.41283
 Alpha virt. eigenvalues --    4.41951   4.42617   4.42795   4.42795   4.42797
 Alpha virt. eigenvalues --    4.43934   4.43934   4.44206   4.44652   4.44883
 Alpha virt. eigenvalues --    4.45004   4.45201   4.45201   4.46064   4.46310
 Alpha virt. eigenvalues --    4.52202   4.56882   4.57337   4.66542  96.17669
 Alpha virt. eigenvalues --   96.19670  96.22627  96.27929  96.33964  96.34225
 Alpha virt. eigenvalues --   96.42233
  Beta  occ. eigenvalues --  -38.45602 -38.44675 -38.44619 -38.44340 -38.44340
  Beta  occ. eigenvalues --  -38.43996 -38.43976  -2.21226  -2.20466  -2.20444
  Beta  occ. eigenvalues --   -2.20103  -2.20100  -2.19828  -2.19730  -1.14950
  Beta  occ. eigenvalues --   -1.14950  -1.14950  -1.14204  -1.14159  -1.14117
  Beta  occ. eigenvalues --   -1.14104  -1.14101  -1.14018  -1.13811  -1.13774
  Beta  occ. eigenvalues --   -1.13774  -1.13758  -1.13758  -1.13677  -1.13526
  Beta  occ. eigenvalues --   -1.13488  -1.13450  -1.13398  -1.13396  -1.13345
  Beta  occ. eigenvalues --   -0.15020  -0.12889  -0.11590
  Beta virt. eigenvalues --   -0.06802  -0.06235  -0.05792  -0.04660  -0.03130
  Beta virt. eigenvalues --   -0.02451  -0.02290  -0.02290  -0.01807  -0.01153
  Beta virt. eigenvalues --   -0.00953  -0.00744  -0.00100  -0.00099  -0.00099
  Beta virt. eigenvalues --    0.00034   0.00093   0.00527   0.00529   0.00530
  Beta virt. eigenvalues --    0.00610   0.00755   0.00774   0.00834   0.00863
  Beta virt. eigenvalues --    0.01131   0.01292   0.01293   0.01406   0.01530
  Beta virt. eigenvalues --    0.01590   0.01765   0.01808   0.01854   0.02066
  Beta virt. eigenvalues --    0.02200   0.02232   0.02234   0.02238   0.02265
  Beta virt. eigenvalues --    0.02452   0.02497   0.02544   0.02736   0.02737
  Beta virt. eigenvalues --    0.02962   0.03200   0.03528   0.03855   0.04192
  Beta virt. eigenvalues --    0.04365   0.04950   0.04969   0.06768   0.07119
  Beta virt. eigenvalues --    0.07223   0.07439   0.07495   0.07496   0.07910
  Beta virt. eigenvalues --    0.08051   0.08289   0.08683   0.08769   0.08811
  Beta virt. eigenvalues --    0.08812   0.08819   0.09185   0.09443   0.09540
  Beta virt. eigenvalues --    0.09559   0.09559   0.10208   0.10424   0.10638
  Beta virt. eigenvalues --    0.11677   0.12703   0.13999   0.14614   0.14862
  Beta virt. eigenvalues --    0.15785   0.27412   0.28518   0.29218   0.29959
  Beta virt. eigenvalues --    0.29959   0.30608   0.31555   0.31923   0.32579
  Beta virt. eigenvalues --    0.33586   0.33586   0.34270   0.35309   0.35309
  Beta virt. eigenvalues --    0.35309   0.35309   0.35309   0.35418   0.35807
  Beta virt. eigenvalues --    0.35938   0.36315   0.37453   0.37453   0.38029
  Beta virt. eigenvalues --    0.38894   0.42022   0.42374   0.43080   0.43293
  Beta virt. eigenvalues --    0.43374   0.43419   0.43419   0.43422   0.43534
  Beta virt. eigenvalues --    0.43534   0.43563   0.43876   0.43876   0.44095
  Beta virt. eigenvalues --    0.44192   0.44889   0.45204   0.46230   0.46462
  Beta virt. eigenvalues --    0.46641   0.46641   0.47166   0.47485   0.47709
  Beta virt. eigenvalues --    0.50561   0.52257   0.54117   0.61217   0.63961
  Beta virt. eigenvalues --    0.64874   0.73578   1.99521   2.00859   2.03257
  Beta virt. eigenvalues --    2.07459   2.12312   2.12557   2.18653   4.41230
  Beta virt. eigenvalues --    4.41283   4.41951   4.42617   4.43117   4.43118
  Beta virt. eigenvalues --    4.43119   4.43934   4.43934   4.44206   4.44652
  Beta virt. eigenvalues --    4.44883   4.45004   4.45201   4.45201   4.46064
  Beta virt. eigenvalues --    4.46310   4.52202   4.56882   4.57337   4.66542
  Beta virt. eigenvalues --   96.17938  96.19670  96.22627  96.27929  96.33964
  Beta virt. eigenvalues --   96.34225  96.42233
          Condensed to atoms (all electrons):
               1          2          3          4          5          6
     1  Na  11.000000   0.000000  -0.000000  -0.000000  -0.000000  -0.000000
     2  Na   0.000000  10.665173   0.334803  -0.000000   0.000000   0.000000
     3  Na  -0.000000   0.334803  10.665222   0.000000  -0.000000  -0.000000
     4  Na  -0.000000  -0.000000   0.000000  10.808764   0.266007  -0.195135
     5  Na  -0.000000   0.000000  -0.000000   0.266007  10.667656   0.256563
     6  Na  -0.000000   0.000000  -0.000000  -0.195135   0.256563  11.025059
     7  Na  -0.000000  -0.000000   0.000000  -0.089457  -0.134181   0.258859
               7
     1  Na  -0.000000
     2  Na  -0.000000
     3  Na   0.000000
     4  Na  -0.089457
     5  Na  -0.134181
     6  Na   0.258859
     7  Na  10.773211
          Atomic-Atomic Spin Densities.
               1          2          3          4          5          6
     1  Na   1.000000   0.000000  -0.000000  -0.000000  -0.000000  -0.000000
     2  Na   0.000000   0.000000   0.000000  -0.000000   0.000000   0.000000
     3  Na  -0.000000   0.000000  -0.000000   0.000000  -0.000000  -0.000000
     4  Na  -0.000000  -0.000000   0.000000  -0.000032   0.000001   0.000013
     5  Na  -0.000000   0.000000  -0.000000   0.000001   0.000018  -0.000004
     6  Na  -0.000000   0.000000  -0.000000   0.000013  -0.000004  -0.000007
     7  Na   0.000000  -0.000000   0.000000   0.000009  -0.000006  -0.000003
               7
     1  Na   0.000000
     2  Na  -0.000000
     3  Na   0.000000
     4  Na   0.000009
     5  Na  -0.000006
     6  Na  -0.000003
     7  Na   0.000002
 Mulliken charges and spin densities:
               1          2
     1  Na  -0.000000   1.000000
     2  Na   0.000025   0.000000
     3  Na  -0.000025  -0.000000
     4  Na   0.209821  -0.000009
     5  Na  -0.056044   0.000009
     6  Na  -0.345346  -0.000001
     7  Na   0.191569   0.000001
 Sum of Mulliken charges =  -0.00000   1.00000
 Mulliken charges and spin densities with hydrogens summed into heavy atoms:
               1          2
     1  Na  -0.000000   1.000000
     2  Na   0.000025   0.000000
     3  Na  -0.000025  -0.000000
     4  Na   0.209821  -0.000009
     5  Na  -0.056044   0.000009
     6  Na  -0.345346  -0.000001
     7  Na   0.191569   0.000001
 Electronic spatial extent (au):  <R**2>=          71622.7624
 Charge=             -0.0000 electrons
 Dipole moment (field-independent basis, Debye):
    X=              0.1331    Y=              0.8129    Z=             -0.4704  Tot=              0.9485
 Quadrupole moment (field-independent basis, Debye-Ang):
   XX=            -74.5269   YY=            -73.8423   ZZ=            -67.0176
   XY=            -10.7053   XZ=              4.0305   YZ=              8.1108
 Traceless Quadrupole moment (field-independent basis, Debye-Ang):
   XX=             -2.7313   YY=             -2.0468   ZZ=              4.7780
   XY=            -10.7053   XZ=              4.0305   YZ=              8.1108
 Octapole moment (field-independent basis, Debye-Ang**2):
  XXX=            -88.2701  YYY=             21.8262  ZZZ=             24.3704  XYY=            178.9711
  XXY=             -3.2473  XXZ=            -87.6991  XZZ=             73.5182  YZZ=            -45.2875
  YYZ=              7.1949  XYZ=             83.9901
 Hexadecapole moment (field-independent basis, Debye-Ang**3):
 XXXX=         -79291.5055 YYYY=         -40585.4771 ZZZZ=          -1607.0934 XXXY=          -1286.1013
 XXXZ=           -878.3081 YYYX=           1058.1718 YYYZ=            510.0764 ZZZX=            -91.4843
 ZZZY=           -192.2781 XXYY=         -18353.0030 XXZZ=         -11701.7117 YYZZ=          -6618.9966
 XXYZ=           2510.3794 YYXZ=           1022.4679 ZZXY=            557.8259
 N-N= 1.441127058477D+02 E-N=-3.017082207472D+03  KE= 1.132842029866D+03
                          Isotropic Fermi Contact Couplings
        Atom                 a.u.       MegaHertz       Gauss      10(-4) cm-1
     1  Na(23)             0.79296     938.09915     334.73710     312.91619
     2  Na(23)            -0.00000      -0.00000      -0.00000      -0.00000
     3  Na(23)            -0.00000      -0.00000      -0.00000      -0.00000
     4  Na(23)            -0.00000      -0.00009      -0.00003      -0.00003
     5  Na(23)             0.00000       0.00003       0.00001       0.00001
     6  Na(23)            -0.00000      -0.00003      -0.00001      -0.00001
     7  Na(23)             0.00000       0.00001       0.00000       0.00000
 --------------------------------------------------------
       Center         ----  Spin Dipole Couplings  ----
                      3XX-RR        3YY-RR        3ZZ-RR
 --------------------------------------------------------
     1   Atom        0.000000     -0.000000      0.000000
     2   Atom        0.000003     -0.000001     -0.000002
     3   Atom        0.000004     -0.000001     -0.000003
     4   Atom       -0.000007      0.000016     -0.000009
     5   Atom       -0.000005      0.000011     -0.000007
     6   Atom       -0.000005      0.000012     -0.000006
     7   Atom       -0.000004      0.000010     -0.000005
 --------------------------------------------------------
                        XY            XZ            YZ
 --------------------------------------------------------
     1   Atom        0.000000      0.000000     -0.000000
     2   Atom       -0.000003     -0.000000      0.000000
     3   Atom       -0.000003      0.000000     -0.000000
     4   Atom       -0.000008     -0.000001      0.000003
     5   Atom       -0.000006     -0.000001      0.000002
     6   Atom       -0.000005      0.000000     -0.000000
     7   Atom       -0.000005      0.000000     -0.000002
 --------------------------------------------------------


 ---------------------------------------------------------------------------------
              Anisotropic Spin Dipole Couplings in Principal Axis System
 ---------------------------------------------------------------------------------

       Atom             a.u.   MegaHertz   Gauss  10(-4) cm-1        Axes

              Baa    -0.0000    -0.000    -0.000    -0.000 -0.3008  0.9196  0.2526
     1 Na(23) Bbb     0.0000     0.000     0.000     0.000  0.8872  0.1726  0.4279
              Bcc     0.0000     0.000     0.000     0.000 -0.3499 -0.3528  0.8678
 
              Baa    -0.0000    -0.000    -0.000    -0.000  0.2576  0.4275  0.8665
     2 Na(23) Bbb    -0.0000    -0.000    -0.000    -0.000  0.3847  0.7773 -0.4978
              Bcc     0.0000     0.001     0.000     0.000  0.8864 -0.4616 -0.0357
 
              Baa    -0.0000    -0.000    -0.000    -0.000  0.1786  0.4294  0.8853
     3 Na(23) Bbb    -0.0000    -0.000    -0.000    -0.000  0.3759  0.8017 -0.4647
              Bcc     0.0000     0.001     0.000     0.000  0.9093 -0.4158  0.0183
 
              Baa    -0.0000    -0.001    -0.000    -0.000  0.8823  0.3210 -0.3442
     4 Na(23) Bbb    -0.0000    -0.001    -0.000    -0.000  0.3602  0.0103  0.9328
              Bcc     0.0000     0.003     0.001     0.001 -0.3030  0.9470  0.1065
 
              Baa    -0.0000    -0.001    -0.000    -0.000 -0.4216 -0.2129  0.8814
     5 Na(23) Bbb    -0.0000    -0.001    -0.000    -0.000  0.8544  0.2321  0.4648
              Bcc     0.0000     0.002     0.001     0.001 -0.3035  0.9491  0.0841
 
              Baa    -0.0000    -0.001    -0.000    -0.000  0.9676  0.2504 -0.0331
     6 Na(23) Bbb    -0.0000    -0.001    -0.000    -0.000  0.0307  0.0135  0.9994
              Bcc     0.0000     0.002     0.001     0.001 -0.2507  0.9681 -0.0053
 
              Baa    -0.0000    -0.001    -0.000    -0.000  0.2770  0.1835  0.9432
     7 Na(23) Bbb    -0.0000    -0.001    -0.000    -0.000  0.9141  0.2523 -0.3175
              Bcc     0.0000     0.002     0.001     0.001 -0.2963  0.9501 -0.0979
 

 ---------------------------------------------------------------------------------

 No NMR shielding tensors so no spin-rotation constants.
 Leave Link  601 at Tue Nov 21 11:47:16 2023, MaxMem=   104857600 cpu:              17.9 elap:              18.6
 (Enter /home/sekinelabo/g16/l701.exe)
 ... and contract with generalized density number  0.
 Compute integral first derivatives.
 Leave Link  701 at Tue Nov 21 11:47:24 2023, MaxMem=   104857600 cpu:               7.9 elap:               8.3
 (Enter /home/sekinelabo/g16/l702.exe)
 L702 exits ... SP integral derivatives will be done elsewhere.
 Leave Link  702 at Tue Nov 21 11:47:25 2023, MaxMem=   104857600 cpu:               0.7 elap:               0.7
 (Enter /home/sekinelabo/g16/l703.exe)
 Integral derivatives from FoFJK, PRISM(SPDF).
 Compute integral first derivatives, UseDBF=F ICtDFT=           0.
 Calling FoFJK, ICntrl=      2127 FMM=F ISym2X=0 I1Cent= 0 IOpClX= 1 NMat=1 NMatS=1 NMatT=0.
 FoFJK:  IHMeth= 1 ICntrl=    2127 DoSepK=F KAlg= 0 I1Cent=           0 FoldK=F
 IRaf=         0 NMat=       1 IRICut=       1 DoRegI=T DoRafI=F ISym2E= 0 IDoP0=0 IntGTp=1.
 FoFCou: FMM=F IPFlag=           0 FMFlag=      100000 FMFlg1=         800
         NFxFlg=           0 DoJE=F BraDBF=F KetDBF=F FulRan=T
         wScrn=  0.000000 ICntrl=      2127 IOpCl=  1 I1Cent=           0 NGrid=           0
         NMat0=    1 NMatS0=      1 NMatT0=    0 NMatD0=    1 NMtDS0=    0 NMtDT0=    0
 Symmetry not used in FoFCou.
 Leave Link  703 at Tue Nov 21 11:47:45 2023, MaxMem=   104857600 cpu:              22.7 elap:              20.4
 (Enter /home/sekinelabo/g16/l716.exe)
 Dipole        = 5.23667530D-02 3.19806790D-01-1.85058064D-01
 ***** Axes restored to original set *****
 -------------------------------------------------------------------
 Center     Atomic                   Forces (Hartrees/Bohr)
 Number     Number              X              Y              Z
 -------------------------------------------------------------------
      1       11          -0.000000001   -0.000000013   -0.000000001
      2       11          -0.001318157    0.002786962    0.000630946
      3       11           0.001318160   -0.002786954   -0.000630943
      4       11          -0.000569911   -0.001704280   -0.000479581
      5       11           0.005967819    0.000723163    0.002633261
      6       11          -0.008246399    0.000918045   -0.000000604
      7       11           0.002848488    0.000063077   -0.002153077
 -------------------------------------------------------------------
 Cartesian Forces:  Max     0.008246399 RMS     0.002654164
 Z-matrix is all fixed cartesians, so copy forces.
 Force constants in Cartesian coordinates: 
                1             2             3             4             5 
      1  0.100000D+01
      2  0.000000D+00  0.100000D+01
      3  0.000000D+00  0.000000D+00  0.100000D+01
      4  0.000000D+00  0.000000D+00  0.000000D+00  0.465305D-02
      5  0.000000D+00  0.000000D+00  0.000000D+00 -0.983739D-02  0.207980D-01
      6  0.000000D+00  0.000000D+00  0.000000D+00 -0.222761D-02  0.470957D-02
      7  0.000000D+00  0.000000D+00  0.000000D+00 -0.465305D-02  0.983739D-02
      8  0.000000D+00  0.000000D+00  0.000000D+00  0.983739D-02 -0.207980D-01
      9  0.000000D+00  0.000000D+00  0.000000D+00  0.222761D-02 -0.470957D-02
     10  0.000000D+00  0.000000D+00  0.000000D+00  0.000000D+00  0.000000D+00
     11  0.000000D+00  0.000000D+00  0.000000D+00  0.000000D+00  0.000000D+00
     12  0.000000D+00  0.000000D+00  0.000000D+00  0.000000D+00  0.000000D+00
     13  0.000000D+00  0.000000D+00  0.000000D+00  0.000000D+00  0.000000D+00
     14  0.000000D+00  0.000000D+00  0.000000D+00  0.000000D+00  0.000000D+00
     15  0.000000D+00  0.000000D+00  0.000000D+00  0.000000D+00  0.000000D+00
     16  0.000000D+00  0.000000D+00  0.000000D+00  0.000000D+00  0.000000D+00
     17  0.000000D+00  0.000000D+00  0.000000D+00  0.000000D+00  0.000000D+00
     18  0.000000D+00  0.000000D+00  0.000000D+00  0.000000D+00  0.000000D+00
     19  0.000000D+00  0.000000D+00  0.000000D+00  0.000000D+00  0.000000D+00
     20  0.000000D+00  0.000000D+00  0.000000D+00  0.000000D+00  0.000000D+00
     21  0.000000D+00  0.000000D+00  0.000000D+00  0.000000D+00  0.000000D+00
                6             7             8             9            10 
      6  0.106645D-02
      7  0.222761D-02  0.465305D-02
      8 -0.470957D-02 -0.983739D-02  0.207980D-01
      9 -0.106645D-02 -0.222761D-02  0.470957D-02  0.106645D-02
     10  0.000000D+00  0.000000D+00  0.000000D+00  0.000000D+00  0.820731D-02
     11  0.000000D+00  0.000000D+00  0.000000D+00  0.000000D+00  0.657718D-02
     12  0.000000D+00  0.000000D+00  0.000000D+00  0.000000D+00  0.163954D-02
     13  0.000000D+00  0.000000D+00  0.000000D+00  0.000000D+00 -0.740301D-02
     14  0.000000D+00  0.000000D+00  0.000000D+00  0.000000D+00 -0.233724D-03
     15  0.000000D+00  0.000000D+00  0.000000D+00  0.000000D+00 -0.251725D-02
     16  0.000000D+00  0.000000D+00  0.000000D+00  0.000000D+00 -0.805050D-03
     17  0.000000D+00  0.000000D+00  0.000000D+00  0.000000D+00 -0.631551D-02
     18  0.000000D+00  0.000000D+00  0.000000D+00  0.000000D+00  0.885651D-03
     19  0.000000D+00  0.000000D+00  0.000000D+00  0.000000D+00  0.000000D+00
     20  0.000000D+00  0.000000D+00  0.000000D+00  0.000000D+00 -0.279399D-04
     21  0.000000D+00  0.000000D+00  0.000000D+00  0.000000D+00 -0.794353D-05
               11            12            13            14            15 
     11  0.247628D-01
     12 -0.220513D-02  0.105707D-02
     13 -0.683110D-02 -0.130702D-02  0.404574D-01
     14 -0.267648D-01  0.483826D-02 -0.346971D-03  0.370647D-01
     15  0.248236D-02 -0.141773D-02  0.115378D-01 -0.892866D-02  0.125626D-01
     16  0.254312D-03 -0.330381D-03 -0.315672D-01  0.171628D-02 -0.128734D-01
     17  0.198740D-02 -0.271308D-02  0.666309D-02 -0.107032D-01  0.777838D-02
     18 -0.281383D-03  0.337929D-03 -0.840440D-02  0.548179D-02 -0.158772D-01
     19  0.000000D+00 -0.214446D-05 -0.148717D-02 -0.113559D-02  0.385290D-02
     20  0.145885D-04  0.799473D-04  0.514978D-03  0.403226D-03 -0.133208D-02
     21  0.414762D-05  0.227297D-04 -0.182636D-02 -0.139139D-02  0.473232D-02
               16            17            18            19            20 
     16  0.468313D-01
     17  0.100299D-02  0.102489D-01
     18  0.411871D-02 -0.979667D-02  0.314703D-01
     19 -0.144591D-01 -0.135057D-02  0.340004D-02  0.159455D-01
     20 -0.297359D-02 -0.153303D-02  0.459626D-02  0.248655D-02  0.111522D-02
     21  0.908510D-02  0.473137D-02 -0.159311D-01 -0.725080D-02 -0.334413D-02
               21 
     21  0.111760D-01
 Leave Link  716 at Tue Nov 21 11:47:46 2023, MaxMem=   104857600 cpu:               0.8 elap:               0.8
 (Enter /home/sekinelabo/g16/l103.exe)

 GradGradGradGradGradGradGradGradGradGradGradGradGradGradGradGradGradGrad
 Berny optimization.
 Search for a local minimum.
 Step number   1 out of a maximum of    2
 All quantities printed in internal units (Hartrees-Bohrs-Radians)
 Second derivative matrix not updated -- first step.
 ITU=  0
     Eigenvalues ---   -0.00000   0.00000   0.00000   0.00000   0.00000
     Eigenvalues ---    0.00036   0.01581   0.02301   0.04704   0.04938
     Eigenvalues ---    0.05304   0.06587   0.08647   0.51773   0.85714
 Eigenvalue     1 is  -3.33D-16 should be greater than     0.000000 Eigenvector:
                          Z2        Z4        X3        X2        Y2
   1                    0.61837  -0.46853   0.35447  -0.24680  -0.22602
                          Y3        X4        Y4        Y6        Z5
   1                    0.17794  -0.15671   0.15485  -0.14778  -0.12363
 Eigenvalue     2 is   2.22D-16 Eigenvector:
                          Z3        Z5        Z2        X2        Z7
   1                    0.64793  -0.44862  -0.36701  -0.24149   0.21504
                          X3        Y6        Y7        X6        X7
   1                    0.20527   0.17782  -0.14868  -0.12933   0.12899
 Eigenvalue     3 is   4.44D-16 Eigenvector:
                          Z4        X3        X2        Z7        Y3
   1                    0.50307   0.44958  -0.43714  -0.28600   0.23062
                          Y7        Z2        Z5        Z3        Y2
   1                   -0.21502  -0.19504   0.18814  -0.18699  -0.18696
 Eigenvalue     4 is   8.88D-16 Eigenvector:
                          Z2        Z5        Z4        Y6        Z7
   1                    0.48349  -0.46265   0.44582   0.34524  -0.22482
                          X2        Z6        Y7        X6        Y5
   1                    0.22393  -0.20123  -0.15515  -0.13199  -0.13134
 Eigenvalue     5 is   8.88D-16 Eigenvector:
                          Z7        Z3        Z5        Z6        X7
   1                    0.60215  -0.57631  -0.27003   0.24452   0.22934
                          X2        Y6        Y7        Y2        X6
   1                   -0.18770   0.16426  -0.12668  -0.12591  -0.10734
 Quadratic step=3.196D+00 exceeds max=3.000D-01 adjusted using Lamda=-4.224D-03.
 Angle between NR and scaled steps=  29.93 degrees.
 Angle between quadratic step and forces=  53.50 degrees.
 Linear search not attempted -- first point.
 B after Tr=     0.000000    0.000000    0.000000
         Rot=    1.000000    0.000000   -0.000000    0.000000 Ang=   0.00 deg.
 Variable       Old X    -DE/DX   Delta X   Delta X   Delta X     New X
                                 (Linear)    (Quad)   (Total)
    X1       18.63397  -0.00000   0.00000   0.00000   0.00000  18.63397
    Y1       56.35012  -0.00000   0.00000  -0.00000  -0.00000  56.35012
    Z1        2.69749  -0.00000   0.00000  -0.00000  -0.00000   2.69749
    X2       19.79904  -0.00132   0.00000  -0.02303  -0.02303  19.77601
    Y2        4.04717   0.00279   0.00000   0.04866   0.04866   4.09583
    Z2       55.46101   0.00063   0.00000   0.01099   0.01099  55.47200
    X3       17.24515   0.00132   0.00000   0.02303   0.02303  17.26818
    Y3        9.44655  -0.00279   0.00000  -0.04868  -0.04868   9.39787
    Z3       56.68366  -0.00063   0.00000  -0.01099  -0.01099  56.67266
    X4       12.38712  -0.00057   0.00000   0.07898   0.07898  12.46610
    Y4        9.68050  -0.00170   0.00000  -0.05593  -0.05593   9.62457
    Z4        3.63162  -0.00048   0.00000  -0.09064  -0.09064   3.54097
    X5       10.42910   0.00597   0.00000   0.01786   0.01786  10.44695
    Y5        3.95136   0.00072   0.00000   0.04213   0.04213   3.99350
    Z5        3.99276   0.00263   0.00000   0.09901   0.09901   4.09177
    X6        5.12044  -0.00825   0.00000  -0.12038  -0.12038   5.00006
    Y6        4.35750   0.00092   0.00000   0.12738   0.12738   4.48488
    Z6        2.06339  -0.00000   0.00000   0.06756   0.06756   2.13095
    X7        0.11701   0.00285   0.00000   0.02353   0.02353   0.14055
    Y7        3.16089   0.00006   0.00000  -0.11356  -0.11356   3.04733
    Z7        5.80019  -0.00215   0.00000  -0.07592  -0.07592   5.72427
         Item               Value     Threshold  Converged?
 Maximum Force            0.008246     0.000450     NO 
 RMS     Force            0.002654     0.000300     NO 
 Maximum Displacement     0.127376     0.001800     NO 
 RMS     Displacement     0.065471     0.001200     NO 
 Predicted change in Energy=-1.275332D-03
 GradGradGradGradGradGradGradGradGradGradGradGradGradGradGradGradGradGrad

 Leave Link  103 at Tue Nov 21 11:47:49 2023, MaxMem=   104857600 cpu:               3.2 elap:               2.8
 (Enter /home/sekinelabo/g16/l9999.exe)
 1\1\GINC-SEKINELABO-XA7R-R37\Force\UB3LYP\6-311+G(d)\Na7(2)\SEKINELABO
 \21-Nov-2023\0\\#P B3LYP/6-311+g(d) force\\DPGEN\\0,2\Na,9.86067,29.81
 92,1.42745\Na,10.4772,2.14167,29.3487\Na,9.12574,4.9989,29.9957\Na,6.5
 5498,5.1227,1.92177\Na,5.51884,2.09097,2.11288\Na,2.70962,2.30589,1.09
 19\Na,0.061921,1.67267,3.06933\\Version=ES64L-G16RevB.01\State=2-A\HF=
 -1136.0883298\S2=0.750009\S2-1=0.\S2A=0.75\RMSD=4.081e-09\RMSF=2.654e-
 03\Dipole=0.2745251,0.2348511,0.0935202\Quadrupole=-1.5909554,5.405011
 1,-3.8140558,-5.2856176,-7.2071643,-3.8976687\PG=C01 [X(Na7)]\\@


 You never know when you're making a memory.
                        -- Rickie Lee Jones
 Job cpu time:       0 days  0 hours  7 minutes  7.7 seconds.
 Elapsed time:       0 days  0 hours  7 minutes 31.8 seconds.
 File lengths (MBytes):  RWF=     46 Int=      0 D2E=      0 Chk=      4 Scr=      1
 Normal termination of Gaussian 16 at Tue Nov 21 11:47:50 2023.
