 Entering Gaussian System, Link 0=g16
 Initial command:
 /home/sekinelabo/g16/l1.exe "/home/sekinelabo/g16temp/Gau-934320.inp" -scrdir="/home/sekinelabo/g16temp/"
 Entering Link 1 = /home/sekinelabo/g16/l1.exe PID=    934340.
  
 Copyright (c) 1988-2017, Gaussian, Inc.  All Rights Reserved.
  
 This is part of the Gaussian(R) 16 program.  It is based on
 the Gaussian(R) 09 system (copyright 2009, Gaussian, Inc.),
 the Gaussian(R) 03 system (copyright 2003, Gaussian, Inc.),
 the Gaussian(R) 98 system (copyright 1998, Gaussian, Inc.),
 the Gaussian(R) 94 system (copyright 1995, Gaussian, Inc.),
 the Gaussian 92(TM) system (copyright 1992, Gaussian, Inc.),
 the Gaussian 90(TM) system (copyright 1990, Gaussian, Inc.),
 the Gaussian 88(TM) system (copyright 1988, Gaussian, Inc.),
 the Gaussian 86(TM) system (copyright 1986, Carnegie Mellon
 University), and the Gaussian 82(TM) system (copyright 1983,
 Carnegie Mellon University). Gaussian is a federally registered
 trademark of Gaussian, Inc.
  
 This software contains proprietary and confidential information,
 including trade secrets, belonging to Gaussian, Inc.
  
 This software is provided under written license and may be
 used, copied, transmitted, or stored only in accord with that
 written license.
  
 The following legend is applicable only to US Government
 contracts under FAR:
  
                    RESTRICTED RIGHTS LEGEND
  
 Use, reproduction and disclosure by the US Government is
 subject to restrictions as set forth in subparagraphs (a)
 and (c) of the Commercial Computer Software - Restricted
 Rights clause in FAR 52.227-19.
  
 Gaussian, Inc.
 340 Quinnipiac St., Bldg. 40, Wallingford CT 06492
  
  
 ---------------------------------------------------------------
 Warning -- This program may not be used in any manner that
 competes with the business of Gaussian, Inc. or will provide
 assistance to any competitor of Gaussian, Inc.  The licensee
 of this program is prohibited from giving any competitor of
 Gaussian, Inc. access to this program.  By using this program,
 the user acknowledges that Gaussian, Inc. is engaged in the
 business of creating and licensing software in the field of
 computational chemistry and represents and warrants to the
 licensee that it is not a competitor of Gaussian, Inc. and that
 it will not use this program in any manner prohibited above.
 ---------------------------------------------------------------
  

 Cite this work as:
 Gaussian 16, Revision B.01,
 M. J. Frisch, G. W. Trucks, H. B. Schlegel, G. E. Scuseria, 
 M. A. Robb, J. R. Cheeseman, G. Scalmani, V. Barone, 
 G. A. Petersson, H. Nakatsuji, X. Li, M. Caricato, A. V. Marenich, 
 J. Bloino, B. G. Janesko, R. Gomperts, B. Mennucci, H. P. Hratchian, 
 J. V. Ortiz, A. F. Izmaylov, J. L. Sonnenberg, D. Williams-Young, 
 F. Ding, F. Lipparini, F. Egidi, J. Goings, B. Peng, A. Petrone, 
 T. Henderson, D. Ranasinghe, V. G. Zakrzewski, J. Gao, N. Rega, 
 G. Zheng, W. Liang, M. Hada, M. Ehara, K. Toyota, R. Fukuda, 
 J. Hasegawa, M. Ishida, T. Nakajima, Y. Honda, O. Kitao, H. Nakai, 
 T. Vreven, K. Throssell, J. A. Montgomery, Jr., J. E. Peralta, 
 F. Ogliaro, M. J. Bearpark, J. J. Heyd, E. N. Brothers, K. N. Kudin, 
 V. N. Staroverov, T. A. Keith, R. Kobayashi, J. Normand, 
 K. Raghavachari, A. P. Rendell, J. C. Burant, S. S. Iyengar, 
 J. Tomasi, M. Cossi, J. M. Millam, M. Klene, C. Adamo, R. Cammi, 
 J. W. Ochterski, R. L. Martin, K. Morokuma, O. Farkas, 
 J. B. Foresman, and D. J. Fox, Gaussian, Inc., Wallingford CT, 2016.
 
 ******************************************
 Gaussian 16:  ES64L-G16RevB.01 20-Dec-2017
                21-Nov-2023 
 ******************************************
 %nprocshared=14
 Will use up to   14 processors via shared memory.
 -------------------------
 #P B3LYP/6-311+g(d) force
 -------------------------
 1/10=7,30=1,38=1/1,3;
 2/12=2,17=6,18=5,40=1/2;
 3/5=4,6=6,7=11,11=2,25=1,30=1,71=1,74=-5/1,2,3;
 4//1;
 5/5=2,38=5/2;
 6/7=2,8=2,9=2,10=2,28=1/1;
 7/29=1/1,2,3,16;
 1/10=7,30=1/3;
 99//99;
 Leave Link    1 at Tue Nov 21 11:40:17 2023, MaxMem=           0 cpu:               0.4 elap:               0.5
 (Enter /home/sekinelabo/g16/l101.exe)
 -----
 DPGEN
 -----
 Symbolic Z-matrix:
 Charge =  0 Multiplicity = 2
 Na                    9.34228   29.96888   1.82585 
 Na                    10.7396   2.30366   29.635 
 Na                    9.14153   4.77706   29.9454 
 Na                    6.70305   4.77673   2.29518 
 Na                    5.47794   2.23509   2.05963 
 Na                    2.42417   2.17427   0.46198 
 Na                    0.48037   1.91627   2.74465 
 
 ITRead=  0  0  0  0  0  0  0
 MicOpt= -1 -1 -1 -1 -1 -1 -1
 NAtoms=      7 NQM=        7 NQMF=       0 NMMI=      0 NMMIF=      0
                NMic=       0 NMicF=      0.
                    Isotopes and Nuclear Properties:
 (Nuclear quadrupole moments (NQMom) in fm**2, nuclear magnetic moments (NMagM)
  in nuclear magnetons)

  Atom         1           2           3           4           5           6           7
 IAtWgt=          23          23          23          23          23          23          23
 AtmWgt=  22.9897697  22.9897697  22.9897697  22.9897697  22.9897697  22.9897697  22.9897697
 NucSpn=           3           3           3           3           3           3           3
 AtZEff=  -0.0000000  -0.0000000  -0.0000000  -0.0000000  -0.0000000  -0.0000000  -0.0000000
 NQMom=   10.4000000  10.4000000  10.4000000  10.4000000  10.4000000  10.4000000  10.4000000
 NMagM=    2.2175200   2.2175200   2.2175200   2.2175200   2.2175200   2.2175200   2.2175200
 AtZNuc=  11.0000000  11.0000000  11.0000000  11.0000000  11.0000000  11.0000000  11.0000000
 Leave Link  101 at Tue Nov 21 11:40:20 2023, MaxMem=   104857600 cpu:               2.4 elap:               2.6
 (Enter /home/sekinelabo/g16/l103.exe)

 GradGradGradGradGradGradGradGradGradGradGradGradGradGradGradGradGradGrad
 Berny optimization.
 Initialization pass.
 Trust Radius=3.00D-01 FncErr=1.00D-07 GrdErr=1.00D-07 EigMax=2.50D+02 EigMin=1.00D-04
 Number of steps in this run=      2 maximum allowed number of steps=      2.
 GradGradGradGradGradGradGradGradGradGradGradGradGradGradGradGradGradGrad

 Leave Link  103 at Tue Nov 21 11:40:21 2023, MaxMem=   104857600 cpu:               0.5 elap:               0.6
 (Enter /home/sekinelabo/g16/l202.exe)
                          Input orientation:                          
 ---------------------------------------------------------------------
 Center     Atomic      Atomic             Coordinates (Angstroms)
 Number     Number       Type             X           Y           Z
 ---------------------------------------------------------------------
      1         11           0        9.342280   29.968877    1.825850
      2         11           0       10.739600    2.303660   29.635000
      3         11           0        9.141530    4.777060   29.945400
      4         11           0        6.703050    4.776730    2.295180
      5         11           0        5.477940    2.235090    2.059630
      6         11           0        2.424170    2.174270    0.461984
      7         11           0        0.480373    1.916270    2.744650
 ---------------------------------------------------------------------
                    Distance matrix (angstroms):
                    1          2          3          4          5
     1  Na   0.000000
     2  Na  39.251313   0.000000
     3  Na  37.754166   2.961061   0.000000
     4  Na  25.334366  27.746632  27.757537   0.000000
     5  Na  28.002691  28.072955  28.240037   2.831309   0.000000
     6  Na  28.675086  30.335260  30.350770   5.333125   3.446982
     7  Na  29.433422  28.783550  28.689381   6.863378   5.054362
                    6          7
     6  Na   0.000000
     7  Na   3.009232   0.000000
 Stoichiometry    Na7(2)
 Framework group  C1[X(Na7)]
 Deg. of freedom    15
 Full point group                 C1      NOp   1
 Largest Abelian subgroup         C1      NOp   1
 Largest concise Abelian subgroup C1      NOp   1
                         Standard orientation:                         
 ---------------------------------------------------------------------
 Center     Atomic      Atomic             Coordinates (Angstroms)
 Number     Number       Type             X           Y           Z
 ---------------------------------------------------------------------
      1         11           0      -13.733651   20.443531    0.316974
      2         11           0       20.690423    1.630008   -0.986888
      3         11           0       20.045317    3.600092    1.127466
      4         11           0       -6.505580   -3.685148   -2.401833
      5         11           0       -6.185335   -6.437721   -1.821233
      6         11           0       -8.130535   -7.675604    0.741096
      7         11           0       -6.180639   -7.875157    3.024418
 ---------------------------------------------------------------------
 Rotational constants (GHZ):           0.0348578           0.0179519           0.0121256
 Leave Link  202 at Tue Nov 21 11:40:22 2023, MaxMem=   104857600 cpu:               0.8 elap:               1.0
 (Enter /home/sekinelabo/g16/l301.exe)
 Standard basis: 6-311+G(d) (5D, 7F)
 Ernie: Thresh=  0.10000D-02 Tol=  0.10000D-05 Strict=F.
 There are   217 symmetry adapted cartesian basis functions of A   symmetry.
 There are   210 symmetry adapted basis functions of A   symmetry.
   210 basis functions,   350 primitive gaussians,   217 cartesian basis functions
    39 alpha electrons       38 beta electrons
       nuclear repulsion energy       148.4861096109 Hartrees.
 IExCor=  402 DFT=T Ex+Corr=B3LYP ExCW=0 ScaHFX=  0.200000
 ScaDFX=  0.800000  0.720000  1.000000  0.810000 ScalE2=  1.000000  1.000000
 IRadAn=      5 IRanWt=     -1 IRanGd=            0 ICorTp=0 IEmpDi=  4
 NAtoms=    7 NActive=    7 NUniq=    7 SFac= 1.00D+00 NAtFMM=   60 NAOKFM=F Big=F
 Integral buffers will be    131072 words long.
 Raffenetti 2 integral format.
 Two-electron integral symmetry is turned on.
 Leave Link  301 at Tue Nov 21 11:40:22 2023, MaxMem=   104857600 cpu:               0.7 elap:               0.8
 (Enter /home/sekinelabo/g16/l302.exe)
 NPDir=0 NMtPBC=     1 NCelOv=     1 NCel=       1 NClECP=     1 NCelD=      1
         NCelK=      1 NCelE2=     1 NClLst=     1 CellRange=     0.0.
 One-electron integrals computed using PRISM.
 One-electron integral symmetry used in STVInt
 NBasis=   210 RedAO= T EigKep=  4.58D-05  NBF=   210
 NBsUse=   210 1.00D-06 EigRej= -1.00D+00 NBFU=   210
 Precomputing XC quadrature grid using
 IXCGrd= 4 IRadAn=           5 IRanWt=          -1 IRanGd=           0 AccXCQ= 0.00D+00.
 Generated NRdTot=       0 NPtTot=           0 NUsed=           0 NTot=          32
 NSgBfM=   142   141   142   142   142 MxSgAt=     7 MxSgA2=     7.
 Leave Link  302 at Tue Nov 21 11:40:54 2023, MaxMem=   104857600 cpu:              28.7 elap:              31.1
 (Enter /home/sekinelabo/g16/l303.exe)
 DipDrv:  MaxL=1.
 Leave Link  303 at Tue Nov 21 11:40:56 2023, MaxMem=   104857600 cpu:               2.4 elap:               2.5
 (Enter /home/sekinelabo/g16/l401.exe)
 ExpMin= 7.60D-03 ExpMax= 3.62D+04 ExpMxC= 1.21D+03 IAcc=3 IRadAn=         5 AccDes= 0.00D+00
 Harris functional with IExCor=  402 and IRadAn=       5 diagonalized for initial guess.
 HarFok:  IExCor=  402 AccDes= 0.00D+00 IRadAn=         5 IDoV= 1 UseB2=F ITyADJ=14
 ICtDFT=  3500011 ScaDFX=  1.000000  1.000000  1.000000  1.000000
 FoFCou: FMM=F IPFlag=           0 FMFlag=      100000 FMFlg1=           0
         NFxFlg=           0 DoJE=T BraDBF=F KetDBF=T FulRan=T
         wScrn=  0.000000 ICntrl=       500 IOpCl=  0 I1Cent=   200000004 NGrid=           0
         NMat0=    1 NMatS0=      1 NMatT0=    0 NMatD0=    1 NMtDS0=    0 NMtDT0=    0
 Petite list used in FoFCou.
 Harris En= -1135.85996105330    
 JPrj=0 DoOrth=F DoCkMO=F.
 Initial guess <Sx>= 0.0000 <Sy>= 0.0000 <Sz>= 0.5000 <S**2>= 0.7500 S= 0.5000
 Leave Link  401 at Tue Nov 21 11:41:13 2023, MaxMem=   104857600 cpu:              16.2 elap:              17.1
 (Enter /home/sekinelabo/g16/l502.exe)
 Integral symmetry usage will be decided dynamically.
 UHF open shell SCF:
 Using DIIS extrapolation, IDIIS=  1040.
 NGot=   104857600 LenX=   104758426 LenY=   104710896
 Requested convergence on RMS density matrix=1.00D-08 within 128 cycles.
 Requested convergence on MAX density matrix=1.00D-06.
 Requested convergence on             energy=1.00D-06.
 No special actions if energy rises.
 Fock matrices will be formed incrementally for  20 cycles.

 Cycle   1  Pass 1  IDiag  1:
 FoFJK:  IHMeth= 1 ICntrl=       0 DoSepK=F KAlg= 0 I1Cent=           0 FoldK=F
 IRaf= 500000000 NMat=       1 IRICut=       1 DoRegI=T DoRafI=F ISym2E= 0 IDoP0=0 IntGTp=1.
 FoFCou: FMM=F IPFlag=           0 FMFlag=      100000 FMFlg1=           0
         NFxFlg=           0 DoJE=F BraDBF=F KetDBF=F FulRan=T
         wScrn=  0.000000 ICntrl=         0 IOpCl=  1 I1Cent=           0 NGrid=           0
         NMat0=    1 NMatS0=      1 NMatT0=    0 NMatD0=    1 NMtDS0=    0 NMtDT0=    0
 Symmetry not used in FoFCou.
 E= -1136.06716315822    
 DIIS: error= 2.00D-02 at cycle   1 NSaved=   1.
 NSaved= 1 IEnMin= 1 EnMin= -1136.06716315822     IErMin= 1 ErrMin= 2.00D-02
 ErrMax= 2.00D-02  0.00D+00 EMaxC= 1.00D-01 BMatC= 1.81D-01 BMatP= 1.81D-01
 IDIUse=3 WtCom= 8.00D-01 WtEn= 2.00D-01
 Coeff-Com:  0.100D+01
 Coeff-En:   0.100D+01
 Coeff:      0.100D+01
 Gap=     0.075 Goal=   None    Shift=    0.000
 Gap=     0.042 Goal=   None    Shift=    0.000
 GapD=    0.042 DampG=0.250 DampE=0.500 DampFc=0.2500 IDamp=-1.
 Damping current iteration by 2.50D-01
 RMSDP=3.10D-03 MaxDP=1.61D-01              OVMax= 1.00D-01

 Cycle   2  Pass 1  IDiag  1:
 RMSU=  7.43D-04    CP:  9.89D-01
 E= -1136.07452881314     Delta-E=       -0.007365654925 Rises=F Damp=T
 DIIS: error= 1.39D-02 at cycle   2 NSaved=   2.
 NSaved= 2 IEnMin= 2 EnMin= -1136.07452881314     IErMin= 2 ErrMin= 1.39D-02
 ErrMax= 1.39D-02  0.00D+00 EMaxC= 1.00D-01 BMatC= 7.09D-02 BMatP= 1.81D-01
 IDIUse=3 WtCom= 8.61D-01 WtEn= 1.39D-01
 Coeff-Com: -0.133D+01 0.233D+01
 Coeff-En:   0.000D+00 0.100D+01
 Coeff:     -0.114D+01 0.214D+01
 Gap=     0.056 Goal=   None    Shift=    0.000
 Gap=     0.055 Goal=   None    Shift=    0.000
 RMSDP=3.06D-03 MaxDP=1.68D-01 DE=-7.37D-03 OVMax= 4.04D-02

 Cycle   3  Pass 1  IDiag  1:
 RMSU=  1.57D-03    CP:  9.42D-01  3.00D+00
 E= -1136.08993193268     Delta-E=       -0.015403119541 Rises=F Damp=F
 DIIS: error= 6.57D-04 at cycle   3 NSaved=   3.
 NSaved= 3 IEnMin= 3 EnMin= -1136.08993193268     IErMin= 3 ErrMin= 6.57D-04
 ErrMax= 6.57D-04  0.00D+00 EMaxC= 1.00D-01 BMatC= 2.43D-04 BMatP= 7.09D-02
 IDIUse=3 WtCom= 9.93D-01 WtEn= 6.57D-03
 Coeff-Com:  0.973D-01-0.122D+00 0.102D+01
 Coeff-En:   0.000D+00 0.000D+00 0.100D+01
 Coeff:      0.967D-01-0.121D+00 0.102D+01
 Gap=     0.057 Goal=   None    Shift=    0.000
 Gap=     0.058 Goal=   None    Shift=    0.000
 RMSDP=3.01D-04 MaxDP=1.32D-02 DE=-1.54D-02 OVMax= 1.67D-02

 Cycle   4  Pass 1  IDiag  1:
 RMSU=  2.21D-04    CP:  9.38D-01  3.00D+00  1.12D+00
 E= -1136.08995792780     Delta-E=       -0.000025995114 Rises=F Damp=F
 DIIS: error= 3.29D-04 at cycle   4 NSaved=   4.
 NSaved= 4 IEnMin= 4 EnMin= -1136.08995792780     IErMin= 4 ErrMin= 3.29D-04
 ErrMax= 3.29D-04  0.00D+00 EMaxC= 1.00D-01 BMatC= 9.14D-05 BMatP= 2.43D-04
 IDIUse=3 WtCom= 9.97D-01 WtEn= 3.29D-03
 Coeff-Com:  0.535D-01-0.704D-01 0.487D+00 0.530D+00
 Coeff-En:   0.000D+00 0.000D+00 0.380D+00 0.620D+00
 Coeff:      0.533D-01-0.702D-01 0.486D+00 0.531D+00
 Gap=     0.057 Goal=   None    Shift=    0.000
 Gap=     0.057 Goal=   None    Shift=    0.000
 RMSDP=1.10D-04 MaxDP=1.01D-02 DE=-2.60D-05 OVMax= 9.46D-03

 Cycle   5  Pass 1  IDiag  1:
 RMSU=  3.85D-05    CP:  9.37D-01  3.00D+00  1.15D+00  5.84D-01
 E= -1136.09001481783     Delta-E=       -0.000056890034 Rises=F Damp=F
 DIIS: error= 6.24D-05 at cycle   5 NSaved=   5.
 NSaved= 5 IEnMin= 5 EnMin= -1136.09001481783     IErMin= 5 ErrMin= 6.24D-05
 ErrMax= 6.24D-05  0.00D+00 EMaxC= 1.00D-01 BMatC= 2.98D-06 BMatP= 9.14D-05
 IDIUse=1 WtCom= 1.00D+00 WtEn= 0.00D+00
 Coeff-Com:  0.132D-01-0.179D-01 0.114D+00 0.201D+00 0.690D+00
 Coeff:      0.132D-01-0.179D-01 0.114D+00 0.201D+00 0.690D+00
 Gap=     0.057 Goal=   None    Shift=    0.000
 Gap=     0.057 Goal=   None    Shift=    0.000
 RMSDP=2.42D-05 MaxDP=1.46D-03 DE=-5.69D-05 OVMax= 1.87D-03

 Cycle   6  Pass 1  IDiag  1:
 RMSU=  1.11D-05    CP:  9.37D-01  3.00D+00  1.15D+00  6.51D-01  6.99D-01
 E= -1136.09001676176     Delta-E=       -0.000001943934 Rises=F Damp=F
 DIIS: error= 7.74D-06 at cycle   6 NSaved=   6.
 NSaved= 6 IEnMin= 6 EnMin= -1136.09001676176     IErMin= 6 ErrMin= 7.74D-06
 ErrMax= 7.74D-06  0.00D+00 EMaxC= 1.00D-01 BMatC= 7.12D-08 BMatP= 2.98D-06
 IDIUse=1 WtCom= 1.00D+00 WtEn= 0.00D+00
 Coeff-Com: -0.912D-05-0.961D-04 0.886D-02 0.212D-01 0.132D+00 0.838D+00
 Coeff:     -0.912D-05-0.961D-04 0.886D-02 0.212D-01 0.132D+00 0.838D+00
 Gap=     0.057 Goal=   None    Shift=    0.000
 Gap=     0.057 Goal=   None    Shift=    0.000
 RMSDP=6.17D-06 MaxDP=2.83D-04 DE=-1.94D-06 OVMax= 4.10D-04

 Cycle   7  Pass 1  IDiag  1:
 RMSU=  2.77D-06    CP:  9.37D-01  3.00D+00  1.16D+00  6.52D-01  7.55D-01
                    CP:  1.00D+00
 E= -1136.09001679943     Delta-E=       -0.000000037668 Rises=F Damp=F
 DIIS: error= 5.02D-06 at cycle   7 NSaved=   7.
 NSaved= 7 IEnMin= 7 EnMin= -1136.09001679943     IErMin= 7 ErrMin= 5.02D-06
 ErrMax= 5.02D-06  0.00D+00 EMaxC= 1.00D-01 BMatC= 1.45D-08 BMatP= 7.12D-08
 IDIUse=1 WtCom= 1.00D+00 WtEn= 0.00D+00
 Coeff-Com: -0.984D-03 0.128D-02-0.453D-02-0.648D-02-0.344D-02 0.357D+00
 Coeff-Com:  0.657D+00
 Coeff:     -0.984D-03 0.128D-02-0.453D-02-0.648D-02-0.344D-02 0.357D+00
 Coeff:      0.657D+00
 Gap=     0.057 Goal=   None    Shift=    0.000
 Gap=     0.057 Goal=   None    Shift=    0.000
 RMSDP=1.71D-06 MaxDP=1.40D-04 DE=-3.77D-08 OVMax= 1.86D-04

 Cycle   8  Pass 1  IDiag  1:
 RMSU=  8.69D-07    CP:  9.37D-01  3.00D+00  1.16D+00  6.54D-01  7.47D-01
                    CP:  1.08D+00  7.17D-01
 E= -1136.09001680897     Delta-E=       -0.000000009539 Rises=F Damp=F
 DIIS: error= 1.09D-06 at cycle   8 NSaved=   8.
 NSaved= 8 IEnMin= 8 EnMin= -1136.09001680897     IErMin= 8 ErrMin= 1.09D-06
 ErrMax= 1.09D-06  0.00D+00 EMaxC= 1.00D-01 BMatC= 9.76D-10 BMatP= 1.45D-08
 IDIUse=1 WtCom= 1.00D+00 WtEn= 0.00D+00
 Coeff-Com: -0.186D-03 0.246D-03-0.183D-02-0.391D-02-0.162D-01 0.337D-01
 Coeff-Com:  0.217D+00 0.771D+00
 Coeff:     -0.186D-03 0.246D-03-0.183D-02-0.391D-02-0.162D-01 0.337D-01
 Coeff:      0.217D+00 0.771D+00
 Gap=     0.057 Goal=   None    Shift=    0.000
 Gap=     0.057 Goal=   None    Shift=    0.000
 RMSDP=4.65D-07 MaxDP=2.83D-05 DE=-9.54D-09 OVMax= 4.67D-05

 Cycle   9  Pass 1  IDiag  1:
 RMSU=  2.17D-07    CP:  9.37D-01  3.00D+00  1.16D+00  6.54D-01  7.48D-01
                    CP:  1.09D+00  8.27D-01  9.08D-01
 E= -1136.09001680968     Delta-E=       -0.000000000706 Rises=F Damp=F
 DIIS: error= 5.21D-07 at cycle   9 NSaved=   9.
 NSaved= 9 IEnMin= 9 EnMin= -1136.09001680968     IErMin= 9 ErrMin= 5.21D-07
 ErrMax= 5.21D-07  0.00D+00 EMaxC= 1.00D-01 BMatC= 7.37D-11 BMatP= 9.76D-10
 IDIUse=1 WtCom= 1.00D+00 WtEn= 0.00D+00
 Coeff-Com:  0.452D-04-0.583D-04-0.169D-03-0.847D-03-0.571D-02-0.201D-01
 Coeff-Com:  0.120D-01 0.275D+00 0.740D+00
 Coeff:      0.452D-04-0.583D-04-0.169D-03-0.847D-03-0.571D-02-0.201D-01
 Coeff:      0.120D-01 0.275D+00 0.740D+00
 Gap=     0.057 Goal=   None    Shift=    0.000
 Gap=     0.057 Goal=   None    Shift=    0.000
 RMSDP=1.67D-07 MaxDP=9.09D-06 DE=-7.06D-10 OVMax= 1.14D-05

 Cycle  10  Pass 1  IDiag  1:
 RMSU=  3.82D-08    CP:  9.37D-01  3.00D+00  1.16D+00  6.55D-01  7.49D-01
                    CP:  1.10D+00  8.28D-01  9.99D-01  8.07D-01
 E= -1136.09001680975     Delta-E=       -0.000000000070 Rises=F Damp=F
 DIIS: error= 5.57D-08 at cycle  10 NSaved=  10.
 NSaved=10 IEnMin=10 EnMin= -1136.09001680975     IErMin=10 ErrMin= 5.57D-08
 ErrMax= 5.57D-08  0.00D+00 EMaxC= 1.00D-01 BMatC= 8.69D-13 BMatP= 7.37D-11
 IDIUse=1 WtCom= 1.00D+00 WtEn= 0.00D+00
 Coeff-Com:  0.125D-04-0.161D-04-0.224D-05-0.870D-04-0.735D-03-0.593D-02
 Coeff-Com: -0.444D-02 0.349D-01 0.144D+00 0.832D+00
 Coeff:      0.125D-04-0.161D-04-0.224D-05-0.870D-04-0.735D-03-0.593D-02
 Coeff:     -0.444D-02 0.349D-01 0.144D+00 0.832D+00
 Gap=     0.057 Goal=   None    Shift=    0.000
 Gap=     0.057 Goal=   None    Shift=    0.000
 RMSDP=2.06D-08 MaxDP=7.20D-07 DE=-7.03D-11 OVMax= 1.27D-06

 Cycle  11  Pass 1  IDiag  1:
 RMSU=  1.00D-08    CP:  9.37D-01  3.00D+00  1.16D+00  6.55D-01  7.49D-01
                    CP:  1.10D+00  8.32D-01  1.01D+00  8.36D-01  1.10D+00
 E= -1136.09001680975     Delta-E=       -0.000000000003 Rises=F Damp=F
 DIIS: error= 1.83D-08 at cycle  11 NSaved=  11.
 NSaved=11 IEnMin=11 EnMin= -1136.09001680975     IErMin=11 ErrMin= 1.83D-08
 ErrMax= 1.83D-08  0.00D+00 EMaxC= 1.00D-01 BMatC= 1.31D-13 BMatP= 8.69D-13
 IDIUse=1 WtCom= 1.00D+00 WtEn= 0.00D+00
 Coeff-Com:  0.651D-06-0.834D-06 0.165D-04 0.414D-04 0.222D-03-0.429D-03
 Coeff-Com: -0.246D-02-0.802D-02-0.698D-02 0.275D+00 0.743D+00
 Coeff:      0.651D-06-0.834D-06 0.165D-04 0.414D-04 0.222D-03-0.429D-03
 Coeff:     -0.246D-02-0.802D-02-0.698D-02 0.275D+00 0.743D+00
 Gap=     0.057 Goal=   None    Shift=    0.000
 Gap=     0.057 Goal=   None    Shift=    0.000
 RMSDP=6.79D-09 MaxDP=2.69D-07 DE=-2.50D-12 OVMax= 3.44D-07

 SCF Done:  E(UB3LYP) =  -1136.09001681     A.U. after   11 cycles
            NFock= 11  Conv=0.68D-08     -V/T= 2.0028
 <Sx>= 0.0000 <Sy>= 0.0000 <Sz>= 0.5000 <S**2>= 0.7500 S= 0.5000
 <L.S>= 0.000000000000E+00
 KE= 1.132922922535D+03 PE=-3.026003402685D+03 EE= 6.085043537295D+02
 Annihilation of the first spin contaminant:
 S**2 before annihilation     0.7500,   after     0.7500
 Leave Link  502 at Tue Nov 21 11:46:29 2023, MaxMem=   104857600 cpu:             290.0 elap:             315.7
 (Enter /home/sekinelabo/g16/l601.exe)
 Copying SCF densities to generalized density rwf, IOpCl= 1 IROHF=0.

 **********************************************************************

            Population analysis using the SCF Density.

 **********************************************************************

 Orbital symmetries:
 Alpha Orbitals:
       Occupied  (A) (A) (A) (A) (A) (A) (A) (A) (A) (A) (A) (A)
                 (A) (A) (A) (A) (A) (A) (A) (A) (A) (A) (A) (A)
                 (A) (A) (A) (A) (A) (A) (A) (A) (A) (A) (A) (A)
                 (A) (A) (A)
       Virtual   (A) (A) (A) (A) (A) (A) (A) (A) (A) (A) (A) (A)
                 (A) (A) (A) (A) (A) (A) (A) (A) (A) (A) (A) (A)
                 (A) (A) (A) (A) (A) (A) (A) (A) (A) (A) (A) (A)
                 (A) (A) (A) (A) (A) (A) (A) (A) (A) (A) (A) (A)
                 (A) (A) (A) (A) (A) (A) (A) (A) (A) (A) (A) (A)
                 (A) (A) (A) (A) (A) (A) (A) (A) (A) (A) (A) (A)
                 (A) (A) (A) (A) (A) (A) (A) (A) (A) (A) (A) (A)
                 (A) (A) (A) (A) (A) (A) (A) (A) (A) (A) (A) (A)
                 (A) (A) (A) (A) (A) (A) (A) (A) (A) (A) (A) (A)
                 (A) (A) (A) (A) (A) (A) (A) (A) (A) (A) (A) (A)
                 (A) (A) (A) (A) (A) (A) (A) (A) (A) (A) (A) (A)
                 (A) (A) (A) (A) (A) (A) (A) (A) (A) (A) (A) (A)
                 (A) (A) (A) (A) (A) (A) (A) (A) (A) (A) (A) (A)
                 (A) (A) (A) (A) (A) (A) (A) (A) (A) (A) (A) (A)
                 (A) (A) (A)
 Beta  Orbitals:
       Occupied  (A) (A) (A) (A) (A) (A) (A) (A) (A) (A) (A) (A)
                 (A) (A) (A) (A) (A) (A) (A) (A) (A) (A) (A) (A)
                 (A) (A) (A) (A) (A) (A) (A) (A) (A) (A) (A) (A)
                 (A) (A)
       Virtual   (A) (A) (A) (A) (A) (A) (A) (A) (A) (A) (A) (A)
                 (A) (A) (A) (A) (A) (A) (A) (A) (A) (A) (A) (A)
                 (A) (A) (A) (A) (A) (A) (A) (A) (A) (A) (A) (A)
                 (A) (A) (A) (A) (A) (A) (A) (A) (A) (A) (A) (A)
                 (A) (A) (A) (A) (A) (A) (A) (A) (A) (A) (A) (A)
                 (A) (A) (A) (A) (A) (A) (A) (A) (A) (A) (A) (A)
                 (A) (A) (A) (A) (A) (A) (A) (A) (A) (A) (A) (A)
                 (A) (A) (A) (A) (A) (A) (A) (A) (A) (A) (A) (A)
                 (A) (A) (A) (A) (A) (A) (A) (A) (A) (A) (A) (A)
                 (A) (A) (A) (A) (A) (A) (A) (A) (A) (A) (A) (A)
                 (A) (A) (A) (A) (A) (A) (A) (A) (A) (A) (A) (A)
                 (A) (A) (A) (A) (A) (A) (A) (A) (A) (A) (A) (A)
                 (A) (A) (A) (A) (A) (A) (A) (A) (A) (A) (A) (A)
                 (A) (A) (A) (A) (A) (A) (A) (A) (A) (A) (A) (A)
                 (A) (A) (A) (A)
 The electronic state is 2-A.
 Alpha  occ. eigenvalues --  -38.45777 -38.44318 -38.44246 -38.44172 -38.44171
 Alpha  occ. eigenvalues --  -38.43892 -38.43856  -2.21561  -2.20115  -2.20078
 Alpha  occ. eigenvalues --   -2.19978  -2.19965  -2.19736  -2.19701  -1.15174
 Alpha  occ. eigenvalues --   -1.15174  -1.15174  -1.13895  -1.13796  -1.13772
 Alpha  occ. eigenvalues --   -1.13769  -1.13735  -1.13719  -1.13641  -1.13638
 Alpha  occ. eigenvalues --   -1.13637  -1.13637  -1.13601  -1.13601  -1.13508
 Alpha  occ. eigenvalues --   -1.13388  -1.13376  -1.13332  -1.13322  -1.13215
 Alpha  occ. eigenvalues --   -0.14931  -0.13158  -0.12804  -0.11975
 Alpha virt. eigenvalues --   -0.06290  -0.05437  -0.04601  -0.03116  -0.02387
 Alpha virt. eigenvalues --   -0.02387  -0.02368  -0.02103  -0.02103  -0.02103
 Alpha virt. eigenvalues --   -0.01926  -0.00972  -0.00813  -0.00700   0.00114
 Alpha virt. eigenvalues --    0.00153   0.00257   0.00640   0.00663   0.00665
 Alpha virt. eigenvalues --    0.00674   0.00859   0.00861   0.01013   0.01095
 Alpha virt. eigenvalues --    0.01269   0.01271   0.01325   0.01329   0.01329
 Alpha virt. eigenvalues --    0.01489   0.01580   0.01609   0.01837   0.01841
 Alpha virt. eigenvalues --    0.01894   0.02109   0.02159   0.02230   0.02501
 Alpha virt. eigenvalues --    0.02564   0.02583   0.02875   0.02877   0.03104
 Alpha virt. eigenvalues --    0.03213   0.03574   0.03928   0.04402   0.04576
 Alpha virt. eigenvalues --    0.04804   0.05128   0.07018   0.07228   0.07274
 Alpha virt. eigenvalues --    0.07334   0.07335   0.07367   0.07466   0.07466
 Alpha virt. eigenvalues --    0.07473   0.07657   0.07859   0.08011   0.08070
 Alpha virt. eigenvalues --    0.08675   0.08957   0.09614   0.09775   0.09775
 Alpha virt. eigenvalues --    0.09837   0.10480   0.10605   0.10712   0.11850
 Alpha virt. eigenvalues --    0.13390   0.13627   0.15336   0.15501   0.16154
 Alpha virt. eigenvalues --    0.27797   0.28719   0.29121   0.29834   0.29834
 Alpha virt. eigenvalues --    0.30662   0.31205   0.32123   0.32792   0.32797
 Alpha virt. eigenvalues --    0.32797   0.33222   0.33222   0.33222   0.33222
 Alpha virt. eigenvalues --    0.33222   0.33533   0.34597   0.35006   0.36538
 Alpha virt. eigenvalues --    0.36991   0.38318   0.38319   0.38773   0.39595
 Alpha virt. eigenvalues --    0.41903   0.41936   0.41936   0.41937   0.42411
 Alpha virt. eigenvalues --    0.42852   0.43212   0.43226   0.43228   0.43456
 Alpha virt. eigenvalues --    0.43669   0.43883   0.44085   0.44085   0.44248
 Alpha virt. eigenvalues --    0.45632   0.46255   0.47216   0.47792   0.47816
 Alpha virt. eigenvalues --    0.48935   0.49692   0.49692   0.50363   0.51978
 Alpha virt. eigenvalues --    0.52762   0.53659   0.58544   0.72441   0.73557
 Alpha virt. eigenvalues --    0.79025   1.98662   2.02646   2.05146   2.08704
 Alpha virt. eigenvalues --    2.12133   2.12415   2.17762   4.41110   4.41448
 Alpha virt. eigenvalues --    4.42781   4.42806   4.42806   4.42813   4.43001
 Alpha virt. eigenvalues --    4.43492   4.43492   4.43808   4.43985   4.44971
 Alpha virt. eigenvalues --    4.45918   4.46085   4.46085   4.47038   4.47617
 Alpha virt. eigenvalues --    4.51245   4.64967   4.66734   4.72779  96.17679
 Alpha virt. eigenvalues --   96.21782  96.24901  96.29417  96.34739  96.34960
 Alpha virt. eigenvalues --   96.41368
  Beta  occ. eigenvalues --  -38.45591 -38.44318 -38.44246 -38.44172 -38.44171
  Beta  occ. eigenvalues --  -38.43892 -38.43856  -2.21215  -2.20115  -2.20078
  Beta  occ. eigenvalues --   -2.19978  -2.19965  -2.19736  -2.19701  -1.14940
  Beta  occ. eigenvalues --   -1.14940  -1.14940  -1.13895  -1.13796  -1.13772
  Beta  occ. eigenvalues --   -1.13769  -1.13735  -1.13719  -1.13641  -1.13638
  Beta  occ. eigenvalues --   -1.13637  -1.13637  -1.13601  -1.13601  -1.13508
  Beta  occ. eigenvalues --   -1.13388  -1.13376  -1.13332  -1.13322  -1.13215
  Beta  occ. eigenvalues --   -0.14931  -0.13158  -0.11975
  Beta virt. eigenvalues --   -0.06290  -0.06224  -0.05437  -0.04601  -0.03116
  Beta virt. eigenvalues --   -0.02387  -0.02387  -0.02368  -0.01926  -0.00972
  Beta virt. eigenvalues --   -0.00813  -0.00700  -0.00089  -0.00089  -0.00088
  Beta virt. eigenvalues --    0.00153   0.00257   0.00640   0.00663   0.00665
  Beta virt. eigenvalues --    0.00674   0.00843   0.00859   0.00862   0.01015
  Beta virt. eigenvalues --    0.01096   0.01269   0.01271   0.01485   0.01579
  Beta virt. eigenvalues --    0.01605   0.01837   0.01841   0.01893   0.02105
  Beta virt. eigenvalues --    0.02152   0.02222   0.02244   0.02244   0.02262
  Beta virt. eigenvalues --    0.02506   0.02564   0.02584   0.02875   0.02877
  Beta virt. eigenvalues --    0.03105   0.03213   0.03574   0.03929   0.04402
  Beta virt. eigenvalues --    0.04576   0.04804   0.05128   0.07018   0.07228
  Beta virt. eigenvalues --    0.07274   0.07334   0.07335   0.07370   0.07656
  Beta virt. eigenvalues --    0.07859   0.08063   0.08675   0.08822   0.08822
  Beta virt. eigenvalues --    0.08828   0.08957   0.09453   0.09614   0.09775
  Beta virt. eigenvalues --    0.09775   0.09837   0.10480   0.10605   0.10712
  Beta virt. eigenvalues --    0.11850   0.13390   0.13627   0.15336   0.15501
  Beta virt. eigenvalues --    0.16154   0.27797   0.28719   0.29121   0.29834
  Beta virt. eigenvalues --    0.29834   0.30662   0.31205   0.32123   0.32792
  Beta virt. eigenvalues --    0.32797   0.32797   0.33533   0.34597   0.35006
  Beta virt. eigenvalues --    0.35320   0.35320   0.35320   0.35320   0.35320
  Beta virt. eigenvalues --    0.36538   0.36991   0.38318   0.38319   0.38773
  Beta virt. eigenvalues --    0.39595   0.41903   0.42410   0.42852   0.43211
  Beta virt. eigenvalues --    0.43226   0.43228   0.43430   0.43430   0.43432
  Beta virt. eigenvalues --    0.43456   0.43669   0.43883   0.44085   0.44085
  Beta virt. eigenvalues --    0.44248   0.45632   0.46255   0.47216   0.47792
  Beta virt. eigenvalues --    0.47816   0.48935   0.49692   0.49692   0.50363
  Beta virt. eigenvalues --    0.51978   0.52762   0.53659   0.58544   0.72441
  Beta virt. eigenvalues --    0.73557   0.79025   1.99531   2.02646   2.05146
  Beta virt. eigenvalues --    2.08704   2.12133   2.12415   2.17762   4.41110
  Beta virt. eigenvalues --    4.41448   4.42787   4.43001   4.43128   4.43128
  Beta virt. eigenvalues --    4.43130   4.43492   4.43492   4.43808   4.43985
  Beta virt. eigenvalues --    4.44971   4.45918   4.46085   4.46085   4.47038
  Beta virt. eigenvalues --    4.47617   4.51245   4.64967   4.66734   4.72779
  Beta virt. eigenvalues --   96.17948  96.21782  96.24901  96.29417  96.34739
  Beta virt. eigenvalues --   96.34960  96.41368
          Condensed to atoms (all electrons):
               1          2          3          4          5          6
     1  Na  11.000000   0.000000  -0.000000  -0.000000  -0.000000  -0.000000
     2  Na   0.000000  10.642852   0.357034  -0.000000   0.000000   0.000000
     3  Na  -0.000000   0.357034  10.643079  -0.000000   0.000000   0.000000
     4  Na  -0.000000  -0.000000  -0.000000  10.802856   0.175801  -0.224696
     5  Na  -0.000000   0.000000   0.000000   0.175801  11.124158   0.309727
     6  Na  -0.000000   0.000000   0.000000  -0.224696   0.309727  10.842726
     7  Na  -0.000000  -0.000000   0.000000  -0.083226  -0.222182   0.266633
               7
     1  Na  -0.000000
     2  Na  -0.000000
     3  Na   0.000000
     4  Na  -0.083226
     5  Na  -0.222182
     6  Na   0.266633
     7  Na  10.786149
          Atomic-Atomic Spin Densities.
               1          2          3          4          5          6
     1  Na   1.000000   0.000000  -0.000000  -0.000000  -0.000000  -0.000000
     2  Na   0.000000  -0.000000  -0.000000  -0.000000   0.000000   0.000000
     3  Na  -0.000000  -0.000000   0.000000   0.000000  -0.000000  -0.000000
     4  Na  -0.000000  -0.000000   0.000000  -0.000039  -0.000005   0.000013
     5  Na  -0.000000   0.000000  -0.000000  -0.000005   0.000038  -0.000004
     6  Na  -0.000000   0.000000  -0.000000   0.000013  -0.000004  -0.000006
     7  Na   0.000000  -0.000000   0.000000   0.000014  -0.000014  -0.000004
               7
     1  Na   0.000000
     2  Na  -0.000000
     3  Na   0.000000
     4  Na   0.000014
     5  Na  -0.000014
     6  Na  -0.000004
     7  Na   0.000005
 Mulliken charges and spin densities:
               1          2
     1  Na  -0.000000   1.000000
     2  Na   0.000114  -0.000000
     3  Na  -0.000114   0.000000
     4  Na   0.329266  -0.000016
     5  Na  -0.387503   0.000016
     6  Na  -0.194389  -0.000001
     7  Na   0.252626   0.000002
 Sum of Mulliken charges =  -0.00000   1.00000
 Mulliken charges and spin densities with hydrogens summed into heavy atoms:
               1          2
     1  Na  -0.000000   1.000000
     2  Na   0.000114  -0.000000
     3  Na  -0.000114   0.000000
     4  Na   0.329266  -0.000016
     5  Na  -0.387503   0.000016
     6  Na  -0.194389  -0.000001
     7  Na   0.252626   0.000002
 Electronic spatial extent (au):  <R**2>=          72198.7638
 Charge=             -0.0000 electrons
 Dipole moment (field-independent basis, Debye):
    X=              0.0768    Y=              0.0969    Z=              0.5921  Tot=              0.6049
 Quadrupole moment (field-independent basis, Debye-Ang):
   XX=            -72.1657   YY=            -67.1212   ZZ=            -68.0805
   XY=             -3.8396   XZ=             -1.7107   YZ=              1.2893
 Traceless Quadrupole moment (field-independent basis, Debye-Ang):
   XX=             -3.0432   YY=              2.0013   ZZ=              1.0419
   XY=             -3.8396   XZ=             -1.7107   YZ=              1.2893
 Octapole moment (field-independent basis, Debye-Ang**2):
  XXX=           -100.8493  YYY=            -81.7040  ZZZ=             35.5198  XYY=             65.1374
  XXY=            -95.0444  XXZ=            -92.2064  XZZ=             98.2397  YZZ=            -25.2695
  YYZ=             33.0035  XYZ=             97.3708
 Hexadecapole moment (field-independent basis, Debye-Ang**3):
 XXXX=         -78157.4621 YYYY=         -40403.1077 ZZZZ=          -1535.8003 XXXY=           -856.5008
 XXXZ=          -1859.3952 YYYX=           1445.0563 YYYZ=            272.8807 ZZZX=           -145.4894
 ZZZY=           -243.5549 XXYY=         -18390.1814 XXZZ=         -11534.1367 YYZZ=          -6861.4794
 XXYZ=           2176.8988 YYXZ=            751.3104 ZZXY=            473.6144
 N-N= 1.484861096109D+02 E-N=-3.026003404504D+03  KE= 1.132922922535D+03
                          Isotropic Fermi Contact Couplings
        Atom                 a.u.       MegaHertz       Gauss      10(-4) cm-1
     1  Na(23)             0.79296     938.09903     334.73706     312.91615
     2  Na(23)             0.00000       0.00000       0.00000       0.00000
     3  Na(23)             0.00000       0.00000       0.00000       0.00000
     4  Na(23)            -0.00000      -0.00006      -0.00002      -0.00002
     5  Na(23)             0.00000       0.00002       0.00001       0.00001
     6  Na(23)            -0.00000      -0.00002      -0.00001      -0.00001
     7  Na(23)            -0.00000      -0.00001      -0.00000      -0.00000
 --------------------------------------------------------
       Center         ----  Spin Dipole Couplings  ----
                      3XX-RR        3YY-RR        3ZZ-RR
 --------------------------------------------------------
     1   Atom        0.000000     -0.000000      0.000000
     2   Atom        0.000003     -0.000001     -0.000002
     3   Atom        0.000004     -0.000001     -0.000003
     4   Atom       -0.000007      0.000016     -0.000009
     5   Atom       -0.000005      0.000012     -0.000007
     6   Atom       -0.000006      0.000012     -0.000006
     7   Atom       -0.000005      0.000010     -0.000006
 --------------------------------------------------------
                        XY            XZ            YZ
 --------------------------------------------------------
     1   Atom        0.000000     -0.000000      0.000000
     2   Atom       -0.000003     -0.000000      0.000000
     3   Atom       -0.000003      0.000000     -0.000000
     4   Atom       -0.000007     -0.000001      0.000003
     5   Atom       -0.000005     -0.000000      0.000001
     6   Atom       -0.000004      0.000000     -0.000000
     7   Atom       -0.000004      0.000000     -0.000002
 --------------------------------------------------------


 ---------------------------------------------------------------------------------
              Anisotropic Spin Dipole Couplings in Principal Axis System
 ---------------------------------------------------------------------------------

       Atom             a.u.   MegaHertz   Gauss  10(-4) cm-1        Axes

              Baa    -0.0000    -0.000    -0.000    -0.000 -0.3668  0.9238 -0.1097
     1 Na(23) Bbb     0.0000     0.000     0.000     0.000  0.7196  0.3565  0.5959
              Bcc     0.0000     0.000     0.000     0.000 -0.5896 -0.1397  0.7955
 
              Baa    -0.0000    -0.000    -0.000    -0.000  0.2285  0.3553  0.9064
     2 Na(23) Bbb    -0.0000    -0.000    -0.000    -0.000  0.4226  0.8025 -0.4211
              Bcc     0.0000     0.001     0.000     0.000  0.8770 -0.4793 -0.0332
 
              Baa    -0.0000    -0.000    -0.000    -0.000  0.1758  0.3960  0.9012
     3 Na(23) Bbb    -0.0000    -0.000    -0.000    -0.000  0.4106  0.8026 -0.4328
              Bcc     0.0000     0.001     0.000     0.000  0.8947 -0.4461  0.0215
 
              Baa    -0.0000    -0.001    -0.000    -0.000  0.8708  0.2108  0.4442
     4 Na(23) Bbb    -0.0000    -0.001    -0.000    -0.000 -0.4005 -0.2202  0.8895
              Bcc     0.0000     0.003     0.001     0.001 -0.2853  0.9524  0.1073
 
              Baa    -0.0000    -0.001    -0.000    -0.000  0.7244  0.2545 -0.6406
     5 Na(23) Bbb    -0.0000    -0.001    -0.000    -0.000  0.6344  0.1173  0.7640
              Bcc     0.0000     0.002     0.001     0.001 -0.2696  0.9599  0.0765
 
              Baa    -0.0000    -0.001    -0.000    -0.000  0.9257  0.1794 -0.3331
     6 Na(23) Bbb    -0.0000    -0.001    -0.000    -0.000  0.3240  0.0788  0.9428
              Bcc     0.0000     0.002     0.001     0.001 -0.1954  0.9806 -0.0148
 
              Baa    -0.0000    -0.001    -0.000    -0.000  0.7003  0.2507  0.6683
     7 Na(23) Bbb    -0.0000    -0.001    -0.000    -0.000 -0.6661 -0.1071  0.7382
              Bcc     0.0000     0.002     0.001     0.001 -0.2566  0.9621 -0.0920
 

 ---------------------------------------------------------------------------------

 No NMR shielding tensors so no spin-rotation constants.
 Leave Link  601 at Tue Nov 21 11:46:49 2023, MaxMem=   104857600 cpu:              18.0 elap:              20.0
 (Enter /home/sekinelabo/g16/l701.exe)
 ... and contract with generalized density number  0.
 Compute integral first derivatives.
 Leave Link  701 at Tue Nov 21 11:46:58 2023, MaxMem=   104857600 cpu:               7.8 elap:               8.6
 (Enter /home/sekinelabo/g16/l702.exe)
 L702 exits ... SP integral derivatives will be done elsewhere.
 Leave Link  702 at Tue Nov 21 11:46:59 2023, MaxMem=   104857600 cpu:               0.6 elap:               0.8
 (Enter /home/sekinelabo/g16/l703.exe)
 Integral derivatives from FoFJK, PRISM(SPDF).
 Compute integral first derivatives, UseDBF=F ICtDFT=           0.
 Calling FoFJK, ICntrl=      2127 FMM=F ISym2X=0 I1Cent= 0 IOpClX= 1 NMat=1 NMatS=1 NMatT=0.
 FoFJK:  IHMeth= 1 ICntrl=    2127 DoSepK=F KAlg= 0 I1Cent=           0 FoldK=F
 IRaf=         0 NMat=       1 IRICut=       1 DoRegI=T DoRafI=F ISym2E= 0 IDoP0=0 IntGTp=1.
 FoFCou: FMM=F IPFlag=           0 FMFlag=      100000 FMFlg1=         800
         NFxFlg=           0 DoJE=F BraDBF=F KetDBF=F FulRan=T
         wScrn=  0.000000 ICntrl=      2127 IOpCl=  1 I1Cent=           0 NGrid=           0
         NMat0=    1 NMatS0=      1 NMatT0=    0 NMatD0=    1 NMtDS0=    0 NMtDT0=    0
 Symmetry not used in FoFCou.
 Leave Link  703 at Tue Nov 21 11:47:24 2023, MaxMem=   104857600 cpu:              23.4 elap:              25.0
 (Enter /home/sekinelabo/g16/l716.exe)
 Dipole        = 3.01976327D-02 3.81270552D-02 2.32945360D-01
 ***** Axes restored to original set *****
 -------------------------------------------------------------------
 Center     Atomic                   Forces (Hartrees/Bohr)
 Number     Number              X              Y              Z
 -------------------------------------------------------------------
      1       11          -0.000000000   -0.000000013   -0.000000000
      2       11           0.001131233   -0.001750873   -0.000221351
      3       11          -0.001131253    0.001750888    0.000221356
      4       11           0.003219148    0.005767256    0.000060552
      5       11          -0.002292312   -0.005722029    0.000595680
      6       11           0.000122824    0.000626565   -0.001805692
      7       11          -0.001049639   -0.000671794    0.001149455
 -------------------------------------------------------------------
 Cartesian Forces:  Max     0.005767256 RMS     0.002152629
 Z-matrix is all fixed cartesians, so copy forces.
 Force constants in Cartesian coordinates: 
                1             2             3             4             5 
      1  0.100000D+01
      2  0.000000D+00  0.100000D+01
      3  0.000000D+00  0.000000D+00  0.100000D+01
      4  0.000000D+00  0.000000D+00  0.000000D+00  0.115056D-01
      5  0.000000D+00  0.000000D+00  0.000000D+00 -0.178077D-01  0.275618D-01
      6  0.000000D+00  0.000000D+00  0.000000D+00 -0.223479D-02  0.345887D-02
      7  0.000000D+00  0.000000D+00  0.000000D+00 -0.115056D-01  0.178077D-01
      8  0.000000D+00  0.000000D+00  0.000000D+00  0.178077D-01 -0.275618D-01
      9  0.000000D+00  0.000000D+00  0.000000D+00  0.223479D-02 -0.345887D-02
     10  0.000000D+00  0.000000D+00  0.000000D+00  0.000000D+00  0.000000D+00
     11  0.000000D+00  0.000000D+00  0.000000D+00  0.000000D+00  0.000000D+00
     12  0.000000D+00  0.000000D+00  0.000000D+00  0.000000D+00  0.000000D+00
     13  0.000000D+00  0.000000D+00  0.000000D+00  0.000000D+00  0.000000D+00
     14  0.000000D+00  0.000000D+00  0.000000D+00  0.000000D+00  0.000000D+00
     15  0.000000D+00  0.000000D+00  0.000000D+00  0.000000D+00  0.000000D+00
     16  0.000000D+00  0.000000D+00  0.000000D+00  0.000000D+00  0.000000D+00
     17  0.000000D+00  0.000000D+00  0.000000D+00  0.000000D+00  0.000000D+00
     18  0.000000D+00  0.000000D+00  0.000000D+00  0.000000D+00  0.000000D+00
     19  0.000000D+00  0.000000D+00  0.000000D+00  0.000000D+00  0.000000D+00
     20  0.000000D+00  0.000000D+00  0.000000D+00  0.000000D+00  0.000000D+00
     21  0.000000D+00  0.000000D+00  0.000000D+00  0.000000D+00  0.000000D+00
                6             7             8             9            10 
      6  0.434072D-03
      7  0.223479D-02  0.115056D-01
      8 -0.345887D-02 -0.178077D-01  0.275618D-01
      9 -0.434072D-03 -0.223479D-02  0.345887D-02  0.434072D-03
     10  0.000000D+00  0.000000D+00  0.000000D+00  0.000000D+00  0.144423D-01
     11  0.000000D+00  0.000000D+00  0.000000D+00  0.000000D+00  0.162149D-01
     12  0.000000D+00  0.000000D+00  0.000000D+00  0.000000D+00  0.493844D-02
     13  0.000000D+00  0.000000D+00  0.000000D+00  0.000000D+00 -0.141720D-01
     14  0.000000D+00  0.000000D+00  0.000000D+00  0.000000D+00 -0.107197D-01
     15  0.000000D+00  0.000000D+00  0.000000D+00  0.000000D+00 -0.566430D-02
     16  0.000000D+00  0.000000D+00  0.000000D+00  0.000000D+00 -0.272469D-03
     17  0.000000D+00  0.000000D+00  0.000000D+00  0.000000D+00 -0.545553D-02
     18  0.000000D+00  0.000000D+00  0.000000D+00  0.000000D+00  0.728486D-03
     19  0.000000D+00  0.000000D+00  0.000000D+00  0.000000D+00  0.216654D-05
     20  0.000000D+00  0.000000D+00  0.000000D+00  0.000000D+00 -0.396182D-04
     21  0.000000D+00  0.000000D+00  0.000000D+00  0.000000D+00 -0.263296D-05
               11            12            13            14            15 
     11  0.410356D-01
     12  0.194252D-02  0.238605D-02
     13 -0.163622D-01 -0.475467D-02  0.306563D-01
     14 -0.439979D-01  0.144034D-02  0.116963D-01  0.527821D-01
     15 -0.154816D-02 -0.286610D-02  0.111411D-01 -0.289015D-02  0.122992D-01
     16  0.147985D-03 -0.179661D-03 -0.141143D-01 -0.545434D-03 -0.100233D-01
     17  0.295014D-02 -0.345813D-02  0.460836D-02 -0.878290D-02  0.454828D-02
     18 -0.395168D-03  0.475054D-03 -0.437473D-02  0.181708D-02 -0.132923D-01
     19  0.000000D+00 -0.411593D-05 -0.237003D-02 -0.431120D-03  0.454652D-02
     20  0.121212D-04  0.752654D-04  0.575555D-04 -0.125742D-05 -0.109965D-03
     21  0.000000D+00  0.500202D-05 -0.201168D-02 -0.367261D-03  0.385915D-02
               16            17            18            19            20 
     16  0.317704D-01
     17  0.242949D-02  0.618691D-02
     18 -0.592655D-02 -0.383885D-02  0.409871D-01
     19 -0.173836D-01 -0.158232D-02  0.957280D-02  0.197515D-01
     20 -0.203204D-02 -0.354145D-03  0.241695D-02  0.201410D-02  0.343281D-03
     21  0.161295D-01  0.274870D-02 -0.281699D-01 -0.141152D-01 -0.238225D-02
               21 
     21  0.243057D-01
 Leave Link  716 at Tue Nov 21 11:47:26 2023, MaxMem=   104857600 cpu:               0.9 elap:               1.0
 (Enter /home/sekinelabo/g16/l103.exe)

 GradGradGradGradGradGradGradGradGradGradGradGradGradGradGradGradGradGrad
 Berny optimization.
 Search for a local minimum.
 Step number   1 out of a maximum of    2
 All quantities printed in internal units (Hartrees-Bohrs-Radians)
 Second derivative matrix not updated -- first step.
 ITU=  0
     Eigenvalues ---   -0.00000  -0.00000   0.00000   0.00000   0.00000
     Eigenvalues ---    0.00035   0.01371   0.02698   0.04024   0.05456
     Eigenvalues ---    0.07771   0.07900   0.10364   0.52248   0.85714
 Eigenvalue     1 is  -5.55D-16 should be greater than     0.000000 Eigenvector:
                          Z5        Y6        Y7        Z7        X6
   1                    0.55831  -0.54195   0.35473  -0.25928   0.25903
                          Z4        X7        Y4        Z2        X4
   1                   -0.20443  -0.17190   0.16549  -0.13373  -0.08095
 Eigenvalue     2 is  -4.44D-16 should be greater than     0.000000 Eigenvector:
                          Z4        Z3        Z2        Z7        Z6
   1                    0.52688   0.44832  -0.44182  -0.40814  -0.20163
                          Y6        X3        Y4        X7        Y7
   1                    0.18201   0.13836  -0.11735  -0.11151  -0.10147
 Eigenvalue     3 is   0.00D+00 Eigenvector:
                          Z2        X2        Z7        X3        Z6
   1                    0.56273   0.47254  -0.38971  -0.26297  -0.23815
                          Y2        Y3        X7        Z4        Y4
   1                    0.20713  -0.18823  -0.15185   0.14762  -0.13709
 Eigenvalue     4 is   4.44D-16 Eigenvector:
                          Z3        Z4        X3        X2        Z2
   1                    0.58651  -0.38545  -0.31166   0.27569  -0.26833
                          Y2        Y3        Z7        Z5        Y7
   1                    0.25021  -0.23655   0.19553  -0.17361   0.17192
 Eigenvalue     5 is   1.11D-15 Eigenvector:
                          Z3        Z2        X3        Z4        Z5
   1                    0.51122   0.44859   0.38076  -0.32794  -0.22369
                          Z6        Z7        X2        Y3        Y2
   1                   -0.21211  -0.19607  -0.18752   0.18644  -0.17287
 Quadratic step=3.360D+00 exceeds max=3.000D-01 adjusted using Lamda=-3.850D-03.
 Angle between NR and scaled steps=  20.67 degrees.
 Angle between quadratic step and forces=  63.31 degrees.
 Linear search not attempted -- first point.
 B after Tr=     0.000000   -0.000000    0.000000
         Rot=    1.000000   -0.000000   -0.000000    0.000000 Ang=   0.00 deg.
 Variable       Old X    -DE/DX   Delta X   Delta X   Delta X     New X
                                 (Linear)    (Quad)   (Total)
    X1       17.65435  -0.00000   0.00000   0.00000   0.00000  17.65435
    Y1       56.63297  -0.00000   0.00000  -0.00000  -0.00000  56.63297
    Z1        3.45036  -0.00000   0.00000  -0.00000  -0.00000   3.45036
    X2       20.29490   0.00113   0.00000   0.01361   0.01361  20.30851
    Y2        4.35329  -0.00175   0.00000  -0.02109  -0.02109   4.33220
    Z2       56.00203  -0.00022   0.00000  -0.00305  -0.00305  55.99898
    X3       17.27499  -0.00113   0.00000  -0.01363  -0.01363  17.26136
    Y3        9.02734   0.00175   0.00000   0.02112   0.02112   9.04846
    Z3       56.58860   0.00022   0.00000   0.00306   0.00306  56.59166
    X4       12.66693   0.00322   0.00000   0.17375   0.17375  12.84068
    Y4        9.02671   0.00577   0.00000   0.05023   0.05023   9.07694
    Z4        4.33726   0.00006   0.00000  -0.08512  -0.08512   4.25214
    X5       10.35181  -0.00229   0.00000  -0.05031  -0.05031  10.30150
    Y5        4.22371  -0.00572   0.00000   0.00052   0.00052   4.22423
    Z5        3.89214   0.00060   0.00000   0.11151   0.11151   4.00365
    X6        4.58102   0.00012   0.00000  -0.03086  -0.03086   4.55015
    Y6        4.10877   0.00063   0.00000   0.08106   0.08106   4.18984
    Z6        0.87302  -0.00181   0.00000  -0.00029  -0.00029   0.87273
    X7        0.90777  -0.00105   0.00000  -0.09256  -0.09256   0.81521
    Y7        3.62123  -0.00067   0.00000  -0.13185  -0.13185   3.48938
    Z7        5.18664   0.00115   0.00000  -0.02610  -0.02610   5.16054
         Item               Value     Threshold  Converged?
 Maximum Force            0.005767     0.000450     NO 
 RMS     Force            0.002153     0.000300     NO 
 Maximum Displacement     0.173753     0.001800     NO 
 RMS     Displacement     0.065597     0.001200     NO 
 Predicted change in Energy=-8.399304D-04
 GradGradGradGradGradGradGradGradGradGradGradGradGradGradGradGradGradGrad

 Leave Link  103 at Tue Nov 21 11:47:29 2023, MaxMem=   104857600 cpu:               3.0 elap:               2.9
 (Enter /home/sekinelabo/g16/l9999.exe)
 1\1\GINC-SEKINELABO-XA7R-R37\Force\UB3LYP\6-311+G(d)\Na7(2)\SEKINELABO
 \21-Nov-2023\0\\#P B3LYP/6-311+g(d) force\\DPGEN\\0,2\Na,9.34228,29.96
 8877,1.82585\Na,10.7396,2.30366,29.635\Na,9.14153,4.77706,29.9454\Na,6
 .70305,4.77673,2.29518\Na,5.47794,2.23509,2.05963\Na,2.42417,2.17427,0
 .461984\Na,0.480373,1.91627,2.74465\\Version=ES64L-G16RevB.01\State=2-
 A\HF=-1136.0900168\S2=0.750009\S2-1=0.\S2A=0.75\RMSD=6.790e-09\RMSF=2.
 153e-03\Dipole=-0.20786,0.0763925,0.0871064\Quadrupole=0.4180655,3.204
 5582,-3.6226237,-1.0663957,-0.2419798,-1.2932866\PG=C01 [X(Na7)]\\@


 PICNIC:  A SNACK IN THE GRASS.
 Job cpu time:       0 days  0 hours  6 minutes 36.8 seconds.
 Elapsed time:       0 days  0 hours  7 minutes 10.9 seconds.
 File lengths (MBytes):  RWF=     46 Int=      0 D2E=      0 Chk=      4 Scr=      1
 Normal termination of Gaussian 16 at Tue Nov 21 11:47:30 2023.
