 Entering Gaussian System, Link 0=g16
 Initial command:
 /home/sekinelabo/g16/l1.exe "/home/sekinelabo/g16temp/Gau-934074.inp" -scrdir="/home/sekinelabo/g16temp/"
 Entering Link 1 = /home/sekinelabo/g16/l1.exe PID=    934086.
  
 Copyright (c) 1988-2017, Gaussian, Inc.  All Rights Reserved.
  
 This is part of the Gaussian(R) 16 program.  It is based on
 the Gaussian(R) 09 system (copyright 2009, Gaussian, Inc.),
 the Gaussian(R) 03 system (copyright 2003, Gaussian, Inc.),
 the Gaussian(R) 98 system (copyright 1998, Gaussian, Inc.),
 the Gaussian(R) 94 system (copyright 1995, Gaussian, Inc.),
 the Gaussian 92(TM) system (copyright 1992, Gaussian, Inc.),
 the Gaussian 90(TM) system (copyright 1990, Gaussian, Inc.),
 the Gaussian 88(TM) system (copyright 1988, Gaussian, Inc.),
 the Gaussian 86(TM) system (copyright 1986, Carnegie Mellon
 University), and the Gaussian 82(TM) system (copyright 1983,
 Carnegie Mellon University). Gaussian is a federally registered
 trademark of Gaussian, Inc.
  
 This software contains proprietary and confidential information,
 including trade secrets, belonging to Gaussian, Inc.
  
 This software is provided under written license and may be
 used, copied, transmitted, or stored only in accord with that
 written license.
  
 The following legend is applicable only to US Government
 contracts under FAR:
  
                    RESTRICTED RIGHTS LEGEND
  
 Use, reproduction and disclosure by the US Government is
 subject to restrictions as set forth in subparagraphs (a)
 and (c) of the Commercial Computer Software - Restricted
 Rights clause in FAR 52.227-19.
  
 Gaussian, Inc.
 340 Quinnipiac St., Bldg. 40, Wallingford CT 06492
  
  
 ---------------------------------------------------------------
 Warning -- This program may not be used in any manner that
 competes with the business of Gaussian, Inc. or will provide
 assistance to any competitor of Gaussian, Inc.  The licensee
 of this program is prohibited from giving any competitor of
 Gaussian, Inc. access to this program.  By using this program,
 the user acknowledges that Gaussian, Inc. is engaged in the
 business of creating and licensing software in the field of
 computational chemistry and represents and warrants to the
 licensee that it is not a competitor of Gaussian, Inc. and that
 it will not use this program in any manner prohibited above.
 ---------------------------------------------------------------
  

 Cite this work as:
 Gaussian 16, Revision B.01,
 M. J. Frisch, G. W. Trucks, H. B. Schlegel, G. E. Scuseria, 
 M. A. Robb, J. R. Cheeseman, G. Scalmani, V. Barone, 
 G. A. Petersson, H. Nakatsuji, X. Li, M. Caricato, A. V. Marenich, 
 J. Bloino, B. G. Janesko, R. Gomperts, B. Mennucci, H. P. Hratchian, 
 J. V. Ortiz, A. F. Izmaylov, J. L. Sonnenberg, D. Williams-Young, 
 F. Ding, F. Lipparini, F. Egidi, J. Goings, B. Peng, A. Petrone, 
 T. Henderson, D. Ranasinghe, V. G. Zakrzewski, J. Gao, N. Rega, 
 G. Zheng, W. Liang, M. Hada, M. Ehara, K. Toyota, R. Fukuda, 
 J. Hasegawa, M. Ishida, T. Nakajima, Y. Honda, O. Kitao, H. Nakai, 
 T. Vreven, K. Throssell, J. A. Montgomery, Jr., J. E. Peralta, 
 F. Ogliaro, M. J. Bearpark, J. J. Heyd, E. N. Brothers, K. N. Kudin, 
 V. N. Staroverov, T. A. Keith, R. Kobayashi, J. Normand, 
 K. Raghavachari, A. P. Rendell, J. C. Burant, S. S. Iyengar, 
 J. Tomasi, M. Cossi, J. M. Millam, M. Klene, C. Adamo, R. Cammi, 
 J. W. Ochterski, R. L. Martin, K. Morokuma, O. Farkas, 
 J. B. Foresman, and D. J. Fox, Gaussian, Inc., Wallingford CT, 2016.
 
 ******************************************
 Gaussian 16:  ES64L-G16RevB.01 20-Dec-2017
                21-Nov-2023 
 ******************************************
 %nprocshared=14
 Will use up to   14 processors via shared memory.
 -------------------------
 #P B3LYP/6-311+g(d) force
 -------------------------
 1/10=7,30=1,38=1/1,3;
 2/12=2,17=6,18=5,40=1/2;
 3/5=4,6=6,7=11,11=2,25=1,30=1,71=1,74=-5/1,2,3;
 4//1;
 5/5=2,38=5/2;
 6/7=2,8=2,9=2,10=2,28=1/1;
 7/29=1/1,2,3,16;
 1/10=7,30=1/3;
 99//99;
 Leave Link    1 at Tue Nov 21 11:40:17 2023, MaxMem=           0 cpu:               0.5 elap:               0.3
 (Enter /home/sekinelabo/g16/l101.exe)
 -----
 DPGEN
 -----
 Symbolic Z-matrix:
 Charge =  0 Multiplicity = 2
 Na                    9.87136   29.7869   1.4173 
 Na                    10.5294   2.09965   29.2609 
 Na                    9.14267   5.05462   29.9901 
 Na                    6.46653   5.19243   1.91098 
 Na                    5.53516   2.03772   2.11627 
 Na                    2.72625   2.32324   1.20783 
 Na                    0.0376    1.65736   3.06433 
 
 ITRead=  0  0  0  0  0  0  0
 MicOpt= -1 -1 -1 -1 -1 -1 -1
 NAtoms=      7 NQM=        7 NQMF=       0 NMMI=      0 NMMIF=      0
                NMic=       0 NMicF=      0.
                    Isotopes and Nuclear Properties:
 (Nuclear quadrupole moments (NQMom) in fm**2, nuclear magnetic moments (NMagM)
  in nuclear magnetons)

  Atom         1           2           3           4           5           6           7
 IAtWgt=          23          23          23          23          23          23          23
 AtmWgt=  22.9897697  22.9897697  22.9897697  22.9897697  22.9897697  22.9897697  22.9897697
 NucSpn=           3           3           3           3           3           3           3
 AtZEff=  -0.0000000  -0.0000000  -0.0000000  -0.0000000  -0.0000000  -0.0000000  -0.0000000
 NQMom=   10.4000000  10.4000000  10.4000000  10.4000000  10.4000000  10.4000000  10.4000000
 NMagM=    2.2175200   2.2175200   2.2175200   2.2175200   2.2175200   2.2175200   2.2175200
 AtZNuc=  11.0000000  11.0000000  11.0000000  11.0000000  11.0000000  11.0000000  11.0000000
 Leave Link  101 at Tue Nov 21 11:40:20 2023, MaxMem=   104857600 cpu:               2.5 elap:               2.7
 (Enter /home/sekinelabo/g16/l103.exe)

 GradGradGradGradGradGradGradGradGradGradGradGradGradGradGradGradGradGrad
 Berny optimization.
 Initialization pass.
 Trust Radius=3.00D-01 FncErr=1.00D-07 GrdErr=1.00D-07 EigMax=2.50D+02 EigMin=1.00D-04
 Number of steps in this run=      2 maximum allowed number of steps=      2.
 GradGradGradGradGradGradGradGradGradGradGradGradGradGradGradGradGradGrad

 Leave Link  103 at Tue Nov 21 11:40:20 2023, MaxMem=   104857600 cpu:               0.5 elap:               0.4
 (Enter /home/sekinelabo/g16/l202.exe)
                          Input orientation:                          
 ---------------------------------------------------------------------
 Center     Atomic      Atomic             Coordinates (Angstroms)
 Number     Number       Type             X           Y           Z
 ---------------------------------------------------------------------
      1         11           0        9.871360   29.786900    1.417300
      2         11           0       10.529400    2.099650   29.260900
      3         11           0        9.142670    5.054620   29.990100
      4         11           0        6.466530    5.192430    1.910980
      5         11           0        5.535160    2.037720    2.116270
      6         11           0        2.726250    2.323240    1.207830
      7         11           0        0.037596    1.657360    3.064330
 ---------------------------------------------------------------------
                    Distance matrix (angstroms):
                    1          2          3          4          5
     1  Na   0.000000
     2  Na  39.271910   0.000000
     3  Na  37.797111   3.344638   0.000000
     4  Na  24.833939  27.822479  28.206696   0.000000
     5  Na  28.094629  27.600312  28.267759   3.295723   0.000000
     6  Na  28.378673  29.118961  29.615029   4.766169   2.965933
     7  Na  29.844374  28.222931  28.625877   7.426852   5.591664
                    6          7
     6  Na   0.000000
     7  Na   3.334494   0.000000
 Stoichiometry    Na7(2)
 Framework group  C1[X(Na7)]
 Deg. of freedom    15
 Full point group                 C1      NOp   1
 Largest Abelian subgroup         C1      NOp   1
 Largest concise Abelian subgroup C1      NOp   1
                         Standard orientation:                         
 ---------------------------------------------------------------------
 Center     Atomic      Atomic             Coordinates (Angstroms)
 Number     Number       Type             X           Y           Z
 ---------------------------------------------------------------------
      1         11           0      -14.492177   19.957887    0.365883
      2         11           0       20.314571    1.827335   -1.068068
      3         11           0       19.917995    4.336992    1.107007
      4         11           0       -6.956850   -3.566348   -2.194150
      5         11           0       -5.921109   -6.690453   -2.023872
      6         11           0       -7.232573   -7.476110    0.517695
      7         11           0       -5.629857   -8.389304    3.295505
 ---------------------------------------------------------------------
 Rotational constants (GHZ):           0.0350738           0.0181761           0.0122732
 Leave Link  202 at Tue Nov 21 11:40:21 2023, MaxMem=   104857600 cpu:               0.8 elap:               0.9
 (Enter /home/sekinelabo/g16/l301.exe)
 Standard basis: 6-311+G(d) (5D, 7F)
 Ernie: Thresh=  0.10000D-02 Tol=  0.10000D-05 Strict=F.
 There are   217 symmetry adapted cartesian basis functions of A   symmetry.
 There are   210 symmetry adapted basis functions of A   symmetry.
   210 basis functions,   350 primitive gaussians,   217 cartesian basis functions
    39 alpha electrons       38 beta electrons
       nuclear repulsion energy       143.4772882915 Hartrees.
 IExCor=  402 DFT=T Ex+Corr=B3LYP ExCW=0 ScaHFX=  0.200000
 ScaDFX=  0.800000  0.720000  1.000000  0.810000 ScalE2=  1.000000  1.000000
 IRadAn=      5 IRanWt=     -1 IRanGd=            0 ICorTp=0 IEmpDi=  4
 NAtoms=    7 NActive=    7 NUniq=    7 SFac= 1.00D+00 NAtFMM=   60 NAOKFM=F Big=F
 Integral buffers will be    131072 words long.
 Raffenetti 2 integral format.
 Two-electron integral symmetry is turned on.
 Leave Link  301 at Tue Nov 21 11:40:22 2023, MaxMem=   104857600 cpu:               0.7 elap:               0.8
 (Enter /home/sekinelabo/g16/l302.exe)
 NPDir=0 NMtPBC=     1 NCelOv=     1 NCel=       1 NClECP=     1 NCelD=      1
         NCelK=      1 NCelE2=     1 NClLst=     1 CellRange=     0.0.
 One-electron integrals computed using PRISM.
 One-electron integral symmetry used in STVInt
 NBasis=   210 RedAO= T EigKep=  7.82D-05  NBF=   210
 NBsUse=   210 1.00D-06 EigRej= -1.00D+00 NBFU=   210
 Precomputing XC quadrature grid using
 IXCGrd= 4 IRadAn=           5 IRanWt=          -1 IRanGd=           0 AccXCQ= 0.00D+00.
 Generated NRdTot=       0 NPtTot=           0 NUsed=           0 NTot=          32
 NSgBfM=   140   140   140   140   140 MxSgAt=     7 MxSgA2=     7.
 Leave Link  302 at Tue Nov 21 11:40:54 2023, MaxMem=   104857600 cpu:              29.7 elap:              32.1
 (Enter /home/sekinelabo/g16/l303.exe)
 DipDrv:  MaxL=1.
 Leave Link  303 at Tue Nov 21 11:40:57 2023, MaxMem=   104857600 cpu:               2.3 elap:               2.4
 (Enter /home/sekinelabo/g16/l401.exe)
 ExpMin= 7.60D-03 ExpMax= 3.62D+04 ExpMxC= 1.21D+03 IAcc=3 IRadAn=         5 AccDes= 0.00D+00
 Harris functional with IExCor=  402 and IRadAn=       5 diagonalized for initial guess.
 HarFok:  IExCor=  402 AccDes= 0.00D+00 IRadAn=         5 IDoV= 1 UseB2=F ITyADJ=14
 ICtDFT=  3500011 ScaDFX=  1.000000  1.000000  1.000000  1.000000
 FoFCou: FMM=F IPFlag=           0 FMFlag=      100000 FMFlg1=           0
         NFxFlg=           0 DoJE=T BraDBF=F KetDBF=T FulRan=T
         wScrn=  0.000000 ICntrl=       500 IOpCl=  0 I1Cent=   200000004 NGrid=           0
         NMat0=    1 NMatS0=      1 NMatT0=    0 NMatD0=    1 NMtDS0=    0 NMtDT0=    0
 Petite list used in FoFCou.
 Harris En= -1135.85745901513    
 JPrj=0 DoOrth=F DoCkMO=F.
 Initial guess <Sx>= 0.0000 <Sy>= 0.0000 <Sz>= 0.5000 <S**2>= 0.7500 S= 0.5000
 Leave Link  401 at Tue Nov 21 11:41:14 2023, MaxMem=   104857600 cpu:              16.0 elap:              17.3
 (Enter /home/sekinelabo/g16/l502.exe)
 Integral symmetry usage will be decided dynamically.
 UHF open shell SCF:
 Using DIIS extrapolation, IDIIS=  1040.
 NGot=   104857600 LenX=   104758426 LenY=   104710896
 Requested convergence on RMS density matrix=1.00D-08 within 128 cycles.
 Requested convergence on MAX density matrix=1.00D-06.
 Requested convergence on             energy=1.00D-06.
 No special actions if energy rises.
 Fock matrices will be formed incrementally for  20 cycles.

 Cycle   1  Pass 1  IDiag  1:
 FoFJK:  IHMeth= 1 ICntrl=       0 DoSepK=F KAlg= 0 I1Cent=           0 FoldK=F
 IRaf= 500000000 NMat=       1 IRICut=       1 DoRegI=T DoRafI=F ISym2E= 0 IDoP0=0 IntGTp=1.
 FoFCou: FMM=F IPFlag=           0 FMFlag=      100000 FMFlg1=           0
         NFxFlg=           0 DoJE=F BraDBF=F KetDBF=F FulRan=T
         wScrn=  0.000000 ICntrl=         0 IOpCl=  1 I1Cent=           0 NGrid=           0
         NMat0=    1 NMatS0=      1 NMatT0=    0 NMatD0=    1 NMtDS0=    0 NMtDT0=    0
 Symmetry not used in FoFCou.
 E= -1136.06309603565    
 DIIS: error= 2.00D-02 at cycle   1 NSaved=   1.
 NSaved= 1 IEnMin= 1 EnMin= -1136.06309603565     IErMin= 1 ErrMin= 2.00D-02
 ErrMax= 2.00D-02  0.00D+00 EMaxC= 1.00D-01 BMatC= 1.83D-01 BMatP= 1.83D-01
 IDIUse=3 WtCom= 8.00D-01 WtEn= 2.00D-01
 Coeff-Com:  0.100D+01
 Coeff-En:   0.100D+01
 Coeff:      0.100D+01
 Gap=     0.068 Goal=   None    Shift=    0.000
 Gap=     0.036 Goal=   None    Shift=    0.000
 GapD=    0.036 DampG=0.250 DampE=0.500 DampFc=0.2500 IDamp=-1.
 Damping current iteration by 2.50D-01
 RMSDP=2.80D-03 MaxDP=1.75D-01              OVMax= 1.64D-01

 Cycle   2  Pass 1  IDiag  1:
 RMSU=  6.84D-04    CP:  9.93D-01
 E= -1136.07089732496     Delta-E=       -0.007801289308 Rises=F Damp=T
 DIIS: error= 1.39D-02 at cycle   2 NSaved=   2.
 NSaved= 2 IEnMin= 2 EnMin= -1136.07089732496     IErMin= 2 ErrMin= 1.39D-02
 ErrMax= 1.39D-02  0.00D+00 EMaxC= 1.00D-01 BMatC= 7.10D-02 BMatP= 1.83D-01
 IDIUse=3 WtCom= 8.61D-01 WtEn= 1.39D-01
 Coeff-Com: -0.131D+01 0.231D+01
 Coeff-En:   0.000D+00 0.100D+01
 Coeff:     -0.113D+01 0.213D+01
 Gap=     0.049 Goal=   None    Shift=    0.000
 Gap=     0.053 Goal=   None    Shift=    0.000
 RMSDP=2.22D-03 MaxDP=1.56D-01 DE=-7.80D-03 OVMax= 1.45D-01

 Cycle   3  Pass 1  IDiag  1:
 RMSU=  1.20D-03    CP:  9.66D-01  3.00D+00
 E= -1136.08617259766     Delta-E=       -0.015275272701 Rises=F Damp=F
 DIIS: error= 1.53D-03 at cycle   3 NSaved=   3.
 NSaved= 3 IEnMin= 3 EnMin= -1136.08617259766     IErMin= 3 ErrMin= 1.53D-03
 ErrMax= 1.53D-03  0.00D+00 EMaxC= 1.00D-01 BMatC= 7.89D-04 BMatP= 7.10D-02
 IDIUse=3 WtCom= 9.85D-01 WtEn= 1.53D-02
 Coeff-Com:  0.439D-01-0.279D-01 0.984D+00
 Coeff-En:   0.000D+00 0.000D+00 0.100D+01
 Coeff:      0.432D-01-0.274D-01 0.984D+00
 Gap=     0.045 Goal=   None    Shift=    0.000
 Gap=     0.045 Goal=   None    Shift=    0.000
 RMSDP=8.22D-04 MaxDP=8.11D-02 DE=-1.53D-02 OVMax= 1.31D-01

 Cycle   4  Pass 1  IDiag  1:
 RMSU=  7.83D-04    CP:  9.62D-01  3.00D+00  7.99D-01
 E= -1136.08426970340     Delta-E=        0.001902894252 Rises=F Damp=F
 DIIS: error= 2.98D-03 at cycle   4 NSaved=   4.
 NSaved= 4 IEnMin= 3 EnMin= -1136.08617259766     IErMin= 3 ErrMin= 1.53D-03
 ErrMax= 2.98D-03  0.00D+00 EMaxC= 1.00D-01 BMatC= 1.80D-03 BMatP= 7.89D-04
 IDIUse=3 WtCom= 1.55D-01 WtEn= 8.45D-01
 Coeff-Com:  0.733D-01-0.961D-01 0.642D+00 0.381D+00
 Coeff-En:   0.000D+00 0.000D+00 0.731D+00 0.269D+00
 Coeff:      0.113D-01-0.149D-01 0.717D+00 0.287D+00
 Gap=     0.047 Goal=   None    Shift=    0.000
 Gap=     0.047 Goal=   None    Shift=    0.000
 RMSDP=4.33D-04 MaxDP=4.58D-02 DE= 1.90D-03 OVMax= 7.66D-02

 Cycle   5  Pass 1  IDiag  1:
 RMSU=  8.48D-05    CP:  9.62D-01  3.00D+00  9.93D-01  5.48D-01
 E= -1136.08690749667     Delta-E=       -0.002637793270 Rises=F Damp=F
 DIIS: error= 4.59D-04 at cycle   5 NSaved=   5.
 NSaved= 5 IEnMin= 5 EnMin= -1136.08690749667     IErMin= 5 ErrMin= 4.59D-04
 ErrMax= 4.59D-04  0.00D+00 EMaxC= 1.00D-01 BMatC= 1.17D-04 BMatP= 7.89D-04
 IDIUse=3 WtCom= 9.95D-01 WtEn= 4.59D-03
 Coeff-Com: -0.104D-01 0.137D-01 0.269D+00 0.147D-01 0.713D+00
 Coeff-En:   0.000D+00 0.000D+00 0.776D-01 0.000D+00 0.922D+00
 Coeff:     -0.104D-01 0.137D-01 0.268D+00 0.146D-01 0.714D+00
 Gap=     0.047 Goal=   None    Shift=    0.000
 Gap=     0.047 Goal=   None    Shift=    0.000
 RMSDP=9.09D-05 MaxDP=1.02D-02 DE=-2.64D-03 OVMax= 1.30D-02

 Cycle   6  Pass 1  IDiag  1:
 RMSU=  2.52D-05    CP:  9.62D-01  3.00D+00  1.04D+00  4.61D-01  7.52D-01
 E= -1136.08698983441     Delta-E=       -0.000082337736 Rises=F Damp=F
 DIIS: error= 7.21D-05 at cycle   6 NSaved=   6.
 NSaved= 6 IEnMin= 6 EnMin= -1136.08698983441     IErMin= 6 ErrMin= 7.21D-05
 ErrMax= 7.21D-05  0.00D+00 EMaxC= 1.00D-01 BMatC= 1.84D-06 BMatP= 1.17D-04
 IDIUse=1 WtCom= 1.00D+00 WtEn= 0.00D+00
 Coeff-Com: -0.131D-01 0.171D-01 0.512D-01-0.371D-01 0.318D+00 0.664D+00
 Coeff:     -0.131D-01 0.171D-01 0.512D-01-0.371D-01 0.318D+00 0.664D+00
 Gap=     0.047 Goal=   None    Shift=    0.000
 Gap=     0.047 Goal=   None    Shift=    0.000
 RMSDP=1.96D-05 MaxDP=1.20D-03 DE=-8.23D-05 OVMax= 1.98D-03

 Cycle   7  Pass 1  IDiag  1:
 RMSU=  1.24D-05    CP:  9.62D-01  3.00D+00  1.04D+00  4.60D-01  8.94D-01
                    CP:  8.92D-01
 E= -1136.08699169762     Delta-E=       -0.000001863213 Rises=F Damp=F
 DIIS: error= 1.51D-05 at cycle   7 NSaved=   7.
 NSaved= 7 IEnMin= 7 EnMin= -1136.08699169762     IErMin= 7 ErrMin= 1.51D-05
 ErrMax= 1.51D-05  0.00D+00 EMaxC= 1.00D-01 BMatC= 6.78D-08 BMatP= 1.84D-06
 IDIUse=1 WtCom= 1.00D+00 WtEn= 0.00D+00
 Coeff-Com: -0.147D-02 0.189D-02-0.714D-02-0.523D-02-0.297D-03 0.154D+00
 Coeff-Com:  0.858D+00
 Coeff:     -0.147D-02 0.189D-02-0.714D-02-0.523D-02-0.297D-03 0.154D+00
 Coeff:      0.858D+00
 Gap=     0.047 Goal=   None    Shift=    0.000
 Gap=     0.047 Goal=   None    Shift=    0.000
 RMSDP=4.64D-06 MaxDP=2.54D-04 DE=-1.86D-06 OVMax= 4.29D-04

 Cycle   8  Pass 1  IDiag  1:
 RMSU=  2.39D-06    CP:  9.62D-01  3.00D+00  1.04D+00  4.62D-01  8.85D-01
                    CP:  9.79D-01  9.16D-01
 E= -1136.08699176664     Delta-E=       -0.000000069019 Rises=F Damp=F
 DIIS: error= 3.16D-06 at cycle   8 NSaved=   8.
 NSaved= 8 IEnMin= 8 EnMin= -1136.08699176664     IErMin= 8 ErrMin= 3.16D-06
 ErrMax= 3.16D-06  0.00D+00 EMaxC= 1.00D-01 BMatC= 3.31D-09 BMatP= 6.78D-08
 IDIUse=1 WtCom= 1.00D+00 WtEn= 0.00D+00
 Coeff-Com:  0.412D-03-0.557D-03-0.378D-02 0.712D-03-0.147D-01-0.286D-02
 Coeff-Com:  0.202D+00 0.818D+00
 Coeff:      0.412D-03-0.557D-03-0.378D-02 0.712D-03-0.147D-01-0.286D-02
 Coeff:      0.202D+00 0.818D+00
 Gap=     0.047 Goal=   None    Shift=    0.000
 Gap=     0.047 Goal=   None    Shift=    0.000
 RMSDP=1.29D-06 MaxDP=7.66D-05 DE=-6.90D-08 OVMax= 7.46D-05

 Cycle   9  Pass 1  IDiag  1:
 RMSU=  4.49D-07    CP:  9.62D-01  3.00D+00  1.04D+00  4.63D-01  8.90D-01
                    CP:  9.99D-01  9.79D-01  9.56D-01
 E= -1136.08699176984     Delta-E=       -0.000000003195 Rises=F Damp=F
 DIIS: error= 5.85D-07 at cycle   9 NSaved=   9.
 NSaved= 9 IEnMin= 9 EnMin= -1136.08699176984     IErMin= 9 ErrMin= 5.85D-07
 ErrMax= 5.85D-07  0.00D+00 EMaxC= 1.00D-01 BMatC= 1.63D-10 BMatP= 3.31D-09
 IDIUse=1 WtCom= 1.00D+00 WtEn= 0.00D+00
 Coeff-Com:  0.258D-03-0.342D-03-0.463D-03 0.587D-03-0.408D-02-0.135D-01
 Coeff-Com: -0.137D-01 0.166D+00 0.865D+00
 Coeff:      0.258D-03-0.342D-03-0.463D-03 0.587D-03-0.408D-02-0.135D-01
 Coeff:     -0.137D-01 0.166D+00 0.865D+00
 Gap=     0.047 Goal=   None    Shift=    0.000
 Gap=     0.047 Goal=   None    Shift=    0.000
 RMSDP=3.03D-07 MaxDP=1.52D-05 DE=-3.20D-09 OVMax= 2.36D-05

 Cycle  10  Pass 1  IDiag  1:
 RMSU=  1.32D-07    CP:  9.62D-01  3.00D+00  1.04D+00  4.63D-01  8.90D-01
                    CP:  1.00D+00  9.85D-01  1.04D+00  9.30D-01
 E= -1136.08699177003     Delta-E=       -0.000000000193 Rises=F Damp=F
 DIIS: error= 1.71D-07 at cycle  10 NSaved=  10.
 NSaved=10 IEnMin=10 EnMin= -1136.08699177003     IErMin=10 ErrMin= 1.71D-07
 ErrMax= 1.71D-07  0.00D+00 EMaxC= 1.00D-01 BMatC= 1.59D-11 BMatP= 1.63D-10
 IDIUse=1 WtCom= 1.00D+00 WtEn= 0.00D+00
 Coeff-Com:  0.831D-04-0.110D-03-0.745D-04 0.196D-03-0.107D-02-0.518D-02
 Coeff-Com: -0.134D-01 0.409D-01 0.339D+00 0.640D+00
 Coeff:      0.831D-04-0.110D-03-0.745D-04 0.196D-03-0.107D-02-0.518D-02
 Coeff:     -0.134D-01 0.409D-01 0.339D+00 0.640D+00
 Gap=     0.047 Goal=   None    Shift=    0.000
 Gap=     0.047 Goal=   None    Shift=    0.000
 RMSDP=6.02D-08 MaxDP=3.26D-06 DE=-1.93D-10 OVMax= 5.23D-06

 Cycle  11  Pass 1  IDiag  1:
 RMSU=  3.60D-08    CP:  9.62D-01  3.00D+00  1.04D+00  4.63D-01  8.90D-01
                    CP:  1.00D+00  9.86D-01  1.04D+00  9.93D-01  8.24D-01
 E= -1136.08699177004     Delta-E=       -0.000000000011 Rises=F Damp=F
 DIIS: error= 6.18D-08 at cycle  11 NSaved=  11.
 NSaved=11 IEnMin=11 EnMin= -1136.08699177004     IErMin=11 ErrMin= 6.18D-08
 ErrMax= 6.18D-08  0.00D+00 EMaxC= 1.00D-01 BMatC= 1.63D-12 BMatP= 1.59D-11
 IDIUse=1 WtCom= 1.00D+00 WtEn= 0.00D+00
 Coeff-Com:  0.571D-05-0.728D-05 0.230D-04 0.121D-04 0.915D-05-0.732D-03
 Coeff-Com: -0.425D-02 0.264D-03 0.634D-01 0.257D+00 0.684D+00
 Coeff:      0.571D-05-0.728D-05 0.230D-04 0.121D-04 0.915D-05-0.732D-03
 Coeff:     -0.425D-02 0.264D-03 0.634D-01 0.257D+00 0.684D+00
 Gap=     0.047 Goal=   None    Shift=    0.000
 Gap=     0.047 Goal=   None    Shift=    0.000
 RMSDP=1.99D-08 MaxDP=1.38D-06 DE=-1.09D-11 OVMax= 1.69D-06

 Cycle  12  Pass 1  IDiag  1:
 RMSU=  1.28D-08    CP:  9.62D-01  3.00D+00  1.04D+00  4.63D-01  8.90D-01
                    CP:  1.00D+00  9.86D-01  1.05D+00  1.00D+00  8.49D-01
                    CP:  9.14D-01
 E= -1136.08699177003     Delta-E=        0.000000000007 Rises=F Damp=F
 DIIS: error= 1.81D-08 at cycle  12 NSaved=  12.
 NSaved=12 IEnMin=11 EnMin= -1136.08699177004     IErMin=12 ErrMin= 1.81D-08
 ErrMax= 1.81D-08  0.00D+00 EMaxC= 1.00D-01 BMatC= 1.40D-13 BMatP= 1.63D-12
 IDIUse=1 WtCom= 1.00D+00 WtEn= 0.00D+00
 Coeff-Com: -0.483D-05 0.649D-05 0.177D-04-0.130D-04 0.102D-03 0.813D-04
 Coeff-Com: -0.774D-03-0.297D-02 0.307D-02 0.575D-01 0.245D+00 0.698D+00
 Coeff:     -0.483D-05 0.649D-05 0.177D-04-0.130D-04 0.102D-03 0.813D-04
 Coeff:     -0.774D-03-0.297D-02 0.307D-02 0.575D-01 0.245D+00 0.698D+00
 Gap=     0.047 Goal=   None    Shift=    0.000
 Gap=     0.047 Goal=   None    Shift=    0.000
 RMSDP=6.64D-09 MaxDP=4.39D-07 DE= 6.82D-12 OVMax= 5.21D-07

 SCF Done:  E(UB3LYP) =  -1136.08699177     A.U. after   12 cycles
            NFock= 12  Conv=0.66D-08     -V/T= 2.0029
 <Sx>= 0.0000 <Sy>= 0.0000 <Sz>= 0.5000 <S**2>= 0.7500 S= 0.5000
 <L.S>= 0.000000000000E+00
 KE= 1.132828771343D+03 PE=-3.015771137662D+03 EE= 6.033780862574D+02
 Annihilation of the first spin contaminant:
 S**2 before annihilation     0.7500,   after     0.7500
 Leave Link  502 at Tue Nov 21 11:46:59 2023, MaxMem=   104857600 cpu:             319.1 elap:             344.7
 (Enter /home/sekinelabo/g16/l601.exe)
 Copying SCF densities to generalized density rwf, IOpCl= 1 IROHF=0.

 **********************************************************************

            Population analysis using the SCF Density.

 **********************************************************************

 Orbital symmetries:
 Alpha Orbitals:
       Occupied  (A) (A) (A) (A) (A) (A) (A) (A) (A) (A) (A) (A)
                 (A) (A) (A) (A) (A) (A) (A) (A) (A) (A) (A) (A)
                 (A) (A) (A) (A) (A) (A) (A) (A) (A) (A) (A) (A)
                 (A) (A) (A)
       Virtual   (A) (A) (A) (A) (A) (A) (A) (A) (A) (A) (A) (A)
                 (A) (A) (A) (A) (A) (A) (A) (A) (A) (A) (A) (A)
                 (A) (A) (A) (A) (A) (A) (A) (A) (A) (A) (A) (A)
                 (A) (A) (A) (A) (A) (A) (A) (A) (A) (A) (A) (A)
                 (A) (A) (A) (A) (A) (A) (A) (A) (A) (A) (A) (A)
                 (A) (A) (A) (A) (A) (A) (A) (A) (A) (A) (A) (A)
                 (A) (A) (A) (A) (A) (A) (A) (A) (A) (A) (A) (A)
                 (A) (A) (A) (A) (A) (A) (A) (A) (A) (A) (A) (A)
                 (A) (A) (A) (A) (A) (A) (A) (A) (A) (A) (A) (A)
                 (A) (A) (A) (A) (A) (A) (A) (A) (A) (A) (A) (A)
                 (A) (A) (A) (A) (A) (A) (A) (A) (A) (A) (A) (A)
                 (A) (A) (A) (A) (A) (A) (A) (A) (A) (A) (A) (A)
                 (A) (A) (A) (A) (A) (A) (A) (A) (A) (A) (A) (A)
                 (A) (A) (A) (A) (A) (A) (A) (A) (A) (A) (A) (A)
                 (A) (A) (A)
 Beta  Orbitals:
       Occupied  (A) (A) (A) (A) (A) (A) (A) (A) (A) (A) (A) (A)
                 (A) (A) (A) (A) (A) (A) (A) (A) (A) (A) (A) (A)
                 (A) (A) (A) (A) (A) (A) (A) (A) (A) (A) (A) (A)
                 (A) (A)
       Virtual   (A) (A) (A) (A) (A) (A) (A) (A) (A) (A) (A) (A)
                 (A) (A) (A) (A) (A) (A) (A) (A) (A) (A) (A) (A)
                 (A) (A) (A) (A) (A) (A) (A) (A) (A) (A) (A) (A)
                 (A) (A) (A) (A) (A) (A) (A) (A) (A) (A) (A) (A)
                 (A) (A) (A) (A) (A) (A) (A) (A) (A) (A) (A) (A)
                 (A) (A) (A) (A) (A) (A) (A) (A) (A) (A) (A) (A)
                 (A) (A) (A) (A) (A) (A) (A) (A) (A) (A) (A) (A)
                 (A) (A) (A) (A) (A) (A) (A) (A) (A) (A) (A) (A)
                 (A) (A) (A) (A) (A) (A) (A) (A) (A) (A) (A) (A)
                 (A) (A) (A) (A) (A) (A) (A) (A) (A) (A) (A) (A)
                 (A) (A) (A) (A) (A) (A) (A) (A) (A) (A) (A) (A)
                 (A) (A) (A) (A) (A) (A) (A) (A) (A) (A) (A) (A)
                 (A) (A) (A) (A) (A) (A) (A) (A) (A) (A) (A) (A)
                 (A) (A) (A) (A) (A) (A) (A) (A) (A) (A) (A) (A)
                 (A) (A) (A) (A)
 The electronic state is 2-A.
 Alpha  occ. eigenvalues --  -38.45789 -38.44801 -38.44800 -38.44460 -38.44460
 Alpha  occ. eigenvalues --  -38.43893 -38.43852  -2.21573  -2.20641  -2.20559
 Alpha  occ. eigenvalues --   -2.20211  -2.20204  -2.19733  -2.19610  -1.15186
 Alpha  occ. eigenvalues --   -1.15186  -1.15186  -1.14381  -1.14295  -1.14278
 Alpha  occ. eigenvalues --   -1.14227  -1.14225  -1.14162  -1.13887  -1.13882
 Alpha  occ. eigenvalues --   -1.13882  -1.13871  -1.13871  -1.13792  -1.13439
 Alpha  occ. eigenvalues --   -1.13393  -1.13353  -1.13277  -1.13275  -1.13229
 Alpha  occ. eigenvalues --   -0.15040  -0.12816  -0.12780  -0.11545
 Alpha virt. eigenvalues --   -0.06856  -0.05954  -0.04658  -0.03148  -0.02455
 Alpha virt. eigenvalues --   -0.02258  -0.02258  -0.02116  -0.02115  -0.02115
 Alpha virt. eigenvalues --   -0.01764  -0.01234  -0.00960  -0.00787   0.00024
 Alpha virt. eigenvalues --    0.00099   0.00105   0.00464   0.00465   0.00494
 Alpha virt. eigenvalues --    0.00577   0.00712   0.00768   0.00857   0.01126
 Alpha virt. eigenvalues --    0.01300   0.01302   0.01305   0.01318   0.01318
 Alpha virt. eigenvalues --    0.01405   0.01536   0.01589   0.01733   0.01827
 Alpha virt. eigenvalues --    0.01876   0.02062   0.02202   0.02276   0.02455
 Alpha virt. eigenvalues --    0.02523   0.02534   0.02672   0.02675   0.02936
 Alpha virt. eigenvalues --    0.03209   0.03510   0.03893   0.04095   0.04304
 Alpha virt. eigenvalues --    0.04963   0.05001   0.06696   0.07082   0.07212
 Alpha virt. eigenvalues --    0.07392   0.07455   0.07455   0.07477   0.07559
 Alpha virt. eigenvalues --    0.07560   0.07971   0.08002   0.08104   0.08383
 Alpha virt. eigenvalues --    0.08692   0.08752   0.09145   0.09461   0.09462
 Alpha virt. eigenvalues --    0.09595   0.10244   0.10296   0.10677   0.11739
 Alpha virt. eigenvalues --    0.12558   0.13806   0.14291   0.15031   0.15776
 Alpha virt. eigenvalues --    0.27291   0.28648   0.29264   0.30102   0.30102
 Alpha virt. eigenvalues --    0.30698   0.31430   0.31837   0.32729   0.33210
 Alpha virt. eigenvalues --    0.33210   0.33210   0.33210   0.33210   0.33855
 Alpha virt. eigenvalues --    0.33855   0.34360   0.35417   0.35722   0.35955
 Alpha virt. eigenvalues --    0.36357   0.37103   0.37103   0.38251   0.38742
 Alpha virt. eigenvalues --    0.41923   0.41923   0.41926   0.42058   0.42279
 Alpha virt. eigenvalues --    0.43038   0.43237   0.43377   0.43614   0.43614
 Alpha virt. eigenvalues --    0.43619   0.43630   0.43630   0.44177   0.44321
 Alpha virt. eigenvalues --    0.44656   0.45233   0.45559   0.45559   0.45976
 Alpha virt. eigenvalues --    0.46661   0.46843   0.47342   0.47564   0.50621
 Alpha virt. eigenvalues --    0.52109   0.54126   0.61463   0.61636   0.63231
 Alpha virt. eigenvalues --    0.73953   1.98650   2.00299   2.03095   2.07503
 Alpha virt. eigenvalues --    2.11660   2.12611   2.18396   4.41621   4.41873
 Alpha virt. eigenvalues --    4.41954   4.42588   4.42794   4.42794   4.42796
 Alpha virt. eigenvalues --    4.44042   4.44042   4.44160   4.44625   4.44881
 Alpha virt. eigenvalues --    4.44881   4.44991   4.45121   4.45994   4.46408
 Alpha virt. eigenvalues --    4.52715   4.53334   4.55137   4.67623  96.17667
 Alpha virt. eigenvalues --   96.19005  96.22434  96.27966  96.32923  96.34233
 Alpha virt. eigenvalues --   96.41926
  Beta  occ. eigenvalues --  -38.45603 -38.44801 -38.44800 -38.44460 -38.44460
  Beta  occ. eigenvalues --  -38.43893 -38.43852  -2.21227  -2.20641  -2.20559
  Beta  occ. eigenvalues --   -2.20211  -2.20204  -2.19733  -2.19610  -1.14952
  Beta  occ. eigenvalues --   -1.14952  -1.14952  -1.14381  -1.14295  -1.14278
  Beta  occ. eigenvalues --   -1.14227  -1.14225  -1.14162  -1.13887  -1.13882
  Beta  occ. eigenvalues --   -1.13882  -1.13871  -1.13871  -1.13792  -1.13439
  Beta  occ. eigenvalues --   -1.13393  -1.13353  -1.13277  -1.13275  -1.13229
  Beta  occ. eigenvalues --   -0.15040  -0.12780  -0.11545
  Beta virt. eigenvalues --   -0.06856  -0.06236  -0.05954  -0.04658  -0.03148
  Beta virt. eigenvalues --   -0.02455  -0.02258  -0.02258  -0.01764  -0.01234
  Beta virt. eigenvalues --   -0.00960  -0.00787  -0.00101  -0.00100  -0.00100
  Beta virt. eigenvalues --    0.00024   0.00101   0.00464   0.00465   0.00494
  Beta virt. eigenvalues --    0.00577   0.00712   0.00768   0.00832   0.00859
  Beta virt. eigenvalues --    0.01126   0.01300   0.01302   0.01392   0.01536
  Beta virt. eigenvalues --    0.01588   0.01733   0.01823   0.01876   0.02050
  Beta virt. eigenvalues --    0.02202   0.02229   0.02232   0.02235   0.02289
  Beta virt. eigenvalues --    0.02456   0.02526   0.02534   0.02672   0.02675
  Beta virt. eigenvalues --    0.02936   0.03210   0.03511   0.03894   0.04095
  Beta virt. eigenvalues --    0.04305   0.04963   0.05001   0.06698   0.07082
  Beta virt. eigenvalues --    0.07213   0.07404   0.07559   0.07560   0.07972
  Beta virt. eigenvalues --    0.08104   0.08382   0.08692   0.08752   0.08810
  Beta virt. eigenvalues --    0.08810   0.08817   0.09145   0.09442   0.09461
  Beta virt. eigenvalues --    0.09462   0.09595   0.10244   0.10296   0.10677
  Beta virt. eigenvalues --    0.11739   0.12558   0.13806   0.14291   0.15031
  Beta virt. eigenvalues --    0.15776   0.27291   0.28648   0.29264   0.30102
  Beta virt. eigenvalues --    0.30102   0.30698   0.31430   0.31837   0.32729
  Beta virt. eigenvalues --    0.33855   0.33855   0.34360   0.35307   0.35307
  Beta virt. eigenvalues --    0.35307   0.35307   0.35307   0.35417   0.35722
  Beta virt. eigenvalues --    0.35955   0.36357   0.37103   0.37103   0.38251
  Beta virt. eigenvalues --    0.38742   0.42058   0.42279   0.43038   0.43237
  Beta virt. eigenvalues --    0.43374   0.43418   0.43418   0.43423   0.43614
  Beta virt. eigenvalues --    0.43614   0.43619   0.43630   0.43630   0.44177
  Beta virt. eigenvalues --    0.44321   0.44656   0.45233   0.45559   0.45559
  Beta virt. eigenvalues --    0.45976   0.46661   0.46843   0.47342   0.47564
  Beta virt. eigenvalues --    0.50621   0.52109   0.54126   0.61463   0.61636
  Beta virt. eigenvalues --    0.63231   0.73953   1.99519   2.00299   2.03095
  Beta virt. eigenvalues --    2.07503   2.11660   2.12611   2.18396   4.41621
  Beta virt. eigenvalues --    4.41873   4.41954   4.42588   4.43116   4.43116
  Beta virt. eigenvalues --    4.43118   4.44042   4.44042   4.44160   4.44625
  Beta virt. eigenvalues --    4.44881   4.44881   4.44991   4.45121   4.45994
  Beta virt. eigenvalues --    4.46408   4.52715   4.53334   4.55137   4.67623
  Beta virt. eigenvalues --   96.17936  96.19005  96.22434  96.27966  96.32923
  Beta virt. eigenvalues --   96.34233  96.41926
          Condensed to atoms (all electrons):
               1          2          3          4          5          6
     1  Na  11.000000   0.000000  -0.000000  -0.000000  -0.000000  -0.000000
     2  Na   0.000000  10.675842   0.324149  -0.000000  -0.000000   0.000000
     3  Na  -0.000000   0.324149  10.675859   0.000000  -0.000000  -0.000000
     4  Na  -0.000000  -0.000000   0.000000  10.815124   0.269930  -0.190094
     5  Na  -0.000000  -0.000000  -0.000000   0.269930  10.600787   0.233300
     6  Na  -0.000000   0.000000  -0.000000  -0.190094   0.233300  11.125834
     7  Na  -0.000000  -0.000000   0.000000  -0.090525  -0.125535   0.249907
               7
     1  Na  -0.000000
     2  Na  -0.000000
     3  Na   0.000000
     4  Na  -0.090525
     5  Na  -0.125535
     6  Na   0.249907
     7  Na  10.764291
          Atomic-Atomic Spin Densities.
               1          2          3          4          5          6
     1  Na   1.000000   0.000000  -0.000000  -0.000000  -0.000000  -0.000000
     2  Na   0.000000  -0.000000   0.000000  -0.000000   0.000000   0.000000
     3  Na  -0.000000   0.000000   0.000000   0.000000  -0.000000  -0.000000
     4  Na  -0.000000  -0.000000   0.000000  -0.000030   0.000001   0.000013
     5  Na  -0.000000   0.000000  -0.000000   0.000001   0.000016  -0.000004
     6  Na  -0.000000   0.000000  -0.000000   0.000013  -0.000004  -0.000007
     7  Na   0.000000  -0.000000   0.000000   0.000008  -0.000006  -0.000003
               7
     1  Na   0.000000
     2  Na  -0.000000
     3  Na   0.000000
     4  Na   0.000008
     5  Na  -0.000006
     6  Na  -0.000003
     7  Na   0.000001
 Mulliken charges and spin densities:
               1          2
     1  Na  -0.000000   1.000000
     2  Na   0.000009  -0.000000
     3  Na  -0.000009   0.000000
     4  Na   0.195566  -0.000008
     5  Na   0.021518   0.000008
     6  Na  -0.418946  -0.000001
     7  Na   0.201862   0.000001
 Sum of Mulliken charges =  -0.00000   1.00000
 Mulliken charges and spin densities with hydrogens summed into heavy atoms:
               1          2
     1  Na  -0.000000   1.000000
     2  Na   0.000009  -0.000000
     3  Na  -0.000009   0.000000
     4  Na   0.195566  -0.000008
     5  Na   0.021518   0.000008
     6  Na  -0.418946  -0.000001
     7  Na   0.201862   0.000001
 Electronic spatial extent (au):  <R**2>=          71404.2621
 Charge=             -0.0000 electrons
 Dipole moment (field-independent basis, Debye):
    X=              0.1356    Y=              0.8953    Z=             -0.6325  Tot=              1.1045
 Quadrupole moment (field-independent basis, Debye-Ang):
   XX=            -75.0557   YY=            -74.5412   ZZ=            -66.7946
   XY=            -11.3805   XZ=              4.6924   YZ=              9.7440
 Traceless Quadrupole moment (field-independent basis, Debye-Ang):
   XX=             -2.9252   YY=             -2.4107   ZZ=              5.3359
   XY=            -11.3805   XZ=              4.6924   YZ=              9.7440
 Octapole moment (field-independent basis, Debye-Ang**2):
  XXX=            -88.1930  YYY=             31.4695  ZZZ=             21.9743  XYY=            190.7014
  XXY=             10.4701  XXZ=            -85.1957  XZZ=             73.6173  YZZ=            -48.1051
  YYZ=             -1.9663  XYZ=             82.4735
 Hexadecapole moment (field-independent basis, Debye-Ang**3):
 XXXX=         -79433.2188 YYYY=         -40554.5376 ZZZZ=          -1602.1076 XXXY=          -1301.2104
 XXXZ=           -755.8258 YYYX=           1020.0249 YYYZ=            597.6347 ZZZX=            -83.9050
 ZZZY=           -168.0337 XXYY=         -18308.9700 XXZZ=         -11626.5632 YYZZ=          -6573.3133
 XXYZ=           2613.5779 YYXZ=           1092.9045 ZZXY=            583.6498
 N-N= 1.434772882915D+02 E-N=-3.015771138539D+03  KE= 1.132828771343D+03
                          Isotropic Fermi Contact Couplings
        Atom                 a.u.       MegaHertz       Gauss      10(-4) cm-1
     1  Na(23)             0.79296     938.09919     334.73712     312.91621
     2  Na(23)            -0.00000      -0.00000      -0.00000      -0.00000
     3  Na(23)             0.00000       0.00000       0.00000       0.00000
     4  Na(23)            -0.00000      -0.00010      -0.00004      -0.00003
     5  Na(23)             0.00000       0.00004       0.00001       0.00001
     6  Na(23)            -0.00000      -0.00003      -0.00001      -0.00001
     7  Na(23)             0.00000       0.00002       0.00001       0.00001
 --------------------------------------------------------
       Center         ----  Spin Dipole Couplings  ----
                      3XX-RR        3YY-RR        3ZZ-RR
 --------------------------------------------------------
     1   Atom        0.000000     -0.000000      0.000000
     2   Atom        0.000003     -0.000001     -0.000002
     3   Atom        0.000004     -0.000001     -0.000003
     4   Atom       -0.000007      0.000016     -0.000009
     5   Atom       -0.000005      0.000011     -0.000007
     6   Atom       -0.000005      0.000012     -0.000006
     7   Atom       -0.000004      0.000010     -0.000005
 --------------------------------------------------------
                        XY            XZ            YZ
 --------------------------------------------------------
     1   Atom        0.000000      0.000000     -0.000000
     2   Atom       -0.000003     -0.000000      0.000000
     3   Atom       -0.000003      0.000000     -0.000000
     4   Atom       -0.000008     -0.000001      0.000003
     5   Atom       -0.000006     -0.000001      0.000002
     6   Atom       -0.000005      0.000000     -0.000000
     7   Atom       -0.000005      0.000000     -0.000002
 --------------------------------------------------------


 ---------------------------------------------------------------------------------
              Anisotropic Spin Dipole Couplings in Principal Axis System
 ---------------------------------------------------------------------------------

       Atom             a.u.   MegaHertz   Gauss  10(-4) cm-1        Axes

              Baa    -0.0000    -0.000    -0.000    -0.000 -0.3028  0.9199  0.2493
     1 Na(23) Bbb     0.0000     0.000     0.000     0.000  0.8911  0.1805  0.4164
              Bcc     0.0000     0.000     0.000     0.000 -0.3381 -0.3483  0.8743
 
              Baa    -0.0000    -0.000    -0.000    -0.000  0.2634  0.4377  0.8597
     2 Na(23) Bbb    -0.0000    -0.000    -0.000    -0.000  0.3809  0.7715 -0.5095
              Bcc     0.0000     0.001     0.000     0.000  0.8863 -0.4617 -0.0365
 
              Baa    -0.0000    -0.000    -0.000    -0.000  0.1767  0.4313  0.8847
     3 Na(23) Bbb    -0.0000    -0.000    -0.000    -0.000  0.3741  0.8020 -0.4657
              Bcc     0.0000     0.001     0.000     0.000  0.9104 -0.4133  0.0196
 
              Baa    -0.0000    -0.001    -0.000    -0.000  0.7915  0.3108 -0.5263
     4 Na(23) Bbb    -0.0000    -0.001    -0.000    -0.000  0.5306  0.0781  0.8440
              Bcc     0.0000     0.003     0.001     0.001 -0.3034  0.9473  0.1031
 
              Baa    -0.0000    -0.001    -0.000    -0.000 -0.3925 -0.2068  0.8962
     5 Na(23) Bbb    -0.0000    -0.001    -0.000    -0.000  0.8677  0.2400  0.4354
              Bcc     0.0000     0.002     0.001     0.001 -0.3051  0.9485  0.0853
 
              Baa    -0.0000    -0.001    -0.000    -0.000  0.9667  0.2557 -0.0117
     6 Na(23) Bbb    -0.0000    -0.001    -0.000    -0.000  0.0099  0.0082  0.9999
              Bcc     0.0000     0.002     0.001     0.001 -0.2558  0.9667 -0.0054
 
              Baa    -0.0000    -0.001    -0.000    -0.000  0.2359  0.1726  0.9563
     7 Na(23) Bbb    -0.0000    -0.001    -0.000    -0.000  0.9253  0.2608 -0.2753
              Bcc     0.0000     0.002     0.001     0.001 -0.2970  0.9498 -0.0981
 

 ---------------------------------------------------------------------------------

 No NMR shielding tensors so no spin-rotation constants.
 Leave Link  601 at Tue Nov 21 11:47:19 2023, MaxMem=   104857600 cpu:              17.8 elap:              19.5
 (Enter /home/sekinelabo/g16/l701.exe)
 ... and contract with generalized density number  0.
 Compute integral first derivatives.
 Leave Link  701 at Tue Nov 21 11:47:27 2023, MaxMem=   104857600 cpu:               7.8 elap:               8.2
 (Enter /home/sekinelabo/g16/l702.exe)
 L702 exits ... SP integral derivatives will be done elsewhere.
 Leave Link  702 at Tue Nov 21 11:47:28 2023, MaxMem=   104857600 cpu:               0.7 elap:               0.7
 (Enter /home/sekinelabo/g16/l703.exe)
 Integral derivatives from FoFJK, PRISM(SPDF).
 Compute integral first derivatives, UseDBF=F ICtDFT=           0.
 Calling FoFJK, ICntrl=      2127 FMM=F ISym2X=0 I1Cent= 0 IOpClX= 1 NMat=1 NMatS=1 NMatT=0.
 FoFJK:  IHMeth= 1 ICntrl=    2127 DoSepK=F KAlg= 0 I1Cent=           0 FoldK=F
 IRaf=         0 NMat=       1 IRICut=       1 DoRegI=T DoRafI=F ISym2E= 0 IDoP0=0 IntGTp=1.
 FoFCou: FMM=F IPFlag=           0 FMFlag=      100000 FMFlg1=         800
         NFxFlg=           0 DoJE=F BraDBF=F KetDBF=F FulRan=T
         wScrn=  0.000000 ICntrl=      2127 IOpCl=  1 I1Cent=           0 NGrid=           0
         NMat0=    1 NMatS0=      1 NMatT0=    0 NMatD0=    1 NMtDS0=    0 NMtDT0=    0
 Symmetry not used in FoFCou.
 Leave Link  703 at Tue Nov 21 11:47:50 2023, MaxMem=   104857600 cpu:              23.8 elap:              21.8
 (Enter /home/sekinelabo/g16/l716.exe)
 Dipole        = 5.33461761D-02 3.52222187D-01-2.48844451D-01
 ***** Axes restored to original set *****
 -------------------------------------------------------------------
 Center     Atomic                   Forces (Hartrees/Bohr)
 Number     Number              X              Y              Z
 -------------------------------------------------------------------
      1       11          -0.000000001   -0.000000014   -0.000000001
      2       11          -0.001961322    0.004180330    0.001031666
      3       11           0.001961329   -0.004180323   -0.001031661
      4       11          -0.000855034   -0.002899708   -0.000369657
      5       11           0.006878061    0.001665106    0.002462536
      6       11          -0.008586849    0.001251351   -0.000281533
      7       11           0.002563817   -0.000016742   -0.001811350
 -------------------------------------------------------------------
 Cartesian Forces:  Max     0.008586849 RMS     0.003050577
 Z-matrix is all fixed cartesians, so copy forces.
 Force constants in Cartesian coordinates: 
                1             2             3             4             5 
      1  0.100000D+01
      2  0.000000D+00  0.100000D+01
      3  0.000000D+00  0.000000D+00  0.100000D+01
      4  0.000000D+00  0.000000D+00  0.000000D+00  0.387630D-02
      5  0.000000D+00  0.000000D+00  0.000000D+00 -0.825997D-02  0.176011D-01
      6  0.000000D+00  0.000000D+00  0.000000D+00 -0.203832D-02  0.434344D-02
      7  0.000000D+00  0.000000D+00  0.000000D+00 -0.387630D-02  0.825997D-02
      8  0.000000D+00  0.000000D+00  0.000000D+00  0.825997D-02 -0.176011D-01
      9  0.000000D+00  0.000000D+00  0.000000D+00  0.203832D-02 -0.434344D-02
     10  0.000000D+00  0.000000D+00  0.000000D+00  0.000000D+00  0.000000D+00
     11  0.000000D+00  0.000000D+00  0.000000D+00  0.000000D+00  0.000000D+00
     12  0.000000D+00  0.000000D+00  0.000000D+00  0.000000D+00  0.000000D+00
     13  0.000000D+00  0.000000D+00  0.000000D+00  0.000000D+00  0.000000D+00
     14  0.000000D+00  0.000000D+00  0.000000D+00  0.000000D+00  0.000000D+00
     15  0.000000D+00  0.000000D+00  0.000000D+00  0.000000D+00  0.000000D+00
     16  0.000000D+00  0.000000D+00  0.000000D+00  0.000000D+00  0.000000D+00
     17  0.000000D+00  0.000000D+00  0.000000D+00  0.000000D+00  0.000000D+00
     18  0.000000D+00  0.000000D+00  0.000000D+00  0.000000D+00  0.000000D+00
     19  0.000000D+00  0.000000D+00  0.000000D+00  0.000000D+00  0.000000D+00
     20  0.000000D+00  0.000000D+00  0.000000D+00  0.000000D+00  0.000000D+00
     21  0.000000D+00  0.000000D+00  0.000000D+00  0.000000D+00  0.000000D+00
                6             7             8             9            10 
      6  0.107183D-02
      7  0.203832D-02  0.387630D-02
      8 -0.434344D-02 -0.825997D-02  0.176011D-01
      9 -0.107183D-02 -0.203832D-02  0.434344D-02  0.107183D-02
     10  0.000000D+00  0.000000D+00  0.000000D+00  0.000000D+00  0.732468D-02
     11  0.000000D+00  0.000000D+00  0.000000D+00  0.000000D+00  0.504028D-02
     12  0.000000D+00  0.000000D+00  0.000000D+00  0.000000D+00  0.141077D-02
     13  0.000000D+00  0.000000D+00  0.000000D+00  0.000000D+00 -0.643569D-02
     14  0.000000D+00  0.000000D+00  0.000000D+00  0.000000D+00  0.136687D-02
     15  0.000000D+00  0.000000D+00  0.000000D+00  0.000000D+00 -0.214579D-02
     16  0.000000D+00  0.000000D+00  0.000000D+00  0.000000D+00 -0.889577D-03
     17  0.000000D+00  0.000000D+00  0.000000D+00  0.000000D+00 -0.634705D-02
     18  0.000000D+00  0.000000D+00  0.000000D+00  0.000000D+00  0.755727D-03
     19  0.000000D+00  0.000000D+00  0.000000D+00  0.000000D+00  0.000000D+00
     20  0.000000D+00  0.000000D+00  0.000000D+00  0.000000D+00 -0.600947D-04
     21  0.000000D+00  0.000000D+00  0.000000D+00  0.000000D+00 -0.207038D-04
               11            12            13            14            15 
     11  0.224727D-01
     12 -0.192419D-02  0.917238D-03
     13 -0.528194D-02 -0.109125D-02  0.416678D-01
     14 -0.242096D-01  0.430165D-02 -0.283127D-02  0.348829D-01
     15  0.212553D-02 -0.115797D-02  0.107907D-01 -0.873762D-02  0.115435D-01
     16  0.241963D-03 -0.317611D-03 -0.338879D-01  0.276876D-02 -0.123913D-01
     17  0.170642D-02 -0.257285D-02  0.745919D-02 -0.113552D-01  0.841998D-02
     18 -0.211829D-03  0.173420D-03 -0.798726D-02  0.608040D-02 -0.151627D-01
     19  0.000000D+00 -0.190977D-05 -0.134422D-02 -0.130436D-02  0.374640D-02
     20  0.304564D-04  0.195386D-03  0.654014D-03  0.681921D-03 -0.180790D-02
     21  0.104928D-04  0.673142D-04 -0.171218D-02 -0.164444D-02  0.477723D-02
               16            17            18            19            20 
     16  0.504964D-01
     17  0.302476D-03  0.119230D-01
     18  0.355974D-02 -0.111809D-01  0.306232D-01
     19 -0.157189D-01 -0.141462D-02  0.367178D-02  0.170626D-01
     20 -0.331320D-02 -0.227421D-02  0.531237D-02  0.271928D-02  0.156184D-02
     21  0.914915D-02  0.533380D-02 -0.156339D-01 -0.741627D-02 -0.369986D-02
               21 
     21  0.107894D-01
 Leave Link  716 at Tue Nov 21 11:47:51 2023, MaxMem=   104857600 cpu:               0.7 elap:               0.7
 (Enter /home/sekinelabo/g16/l103.exe)

 GradGradGradGradGradGradGradGradGradGradGradGradGradGradGradGradGradGrad
 Berny optimization.
 Search for a local minimum.
 Step number   1 out of a maximum of    2
 All quantities printed in internal units (Hartrees-Bohrs-Radians)
 Second derivative matrix not updated -- first step.
 ITU=  0
     Eigenvalues ---   -0.00000  -0.00000  -0.00000   0.00000   0.00000
     Eigenvalues ---    0.00091   0.01575   0.02309   0.04510   0.04748
     Eigenvalues ---    0.04777   0.06333   0.09070   0.51738   0.85714
 Eigenvalue     1 is  -7.77D-16 should be greater than     0.000000 Eigenvector:
                          Z4        Z2        X2        Z3        Y6
   1                    0.71982  -0.54131  -0.20794  -0.20371   0.19354
                          Y7        X3        Z6        Z7        X4
   1                   -0.16022   0.11116   0.07830  -0.07462   0.07430
 Eigenvalue     2 is  -6.66D-16 should be greater than     0.000000 Eigenvector:
                          Z3        X2        Z2        Z7        X3
   1                    0.49383  -0.42062  -0.38477   0.35421   0.30999
                          Z4        Z5        X7        Y7        Y3
   1                   -0.29583  -0.23847   0.16312  -0.10689   0.07162
 Eigenvalue     3 is  -4.44D-16 should be greater than     0.000000 Eigenvector:
                          Z5        Y6        Z2        Z3        Z4
   1                    0.68339  -0.34035  -0.28816  -0.27909  -0.25833
                          X6        X2        Z6        Y5        Y4
   1                    0.18851  -0.18817   0.16029   0.15063   0.13960
 Eigenvalue     4 is   2.22D-16 Eigenvector:
                          Z7        Z3        X3        Z6        Z2
   1                    0.63460  -0.43614  -0.38697   0.27229  -0.18199
                          X7        Z5        X2        Z4        Y3
   1                    0.17353  -0.15645   0.13678  -0.13229  -0.12506
 Eigenvalue     5 is   2.22D-16 Eigenvector:
                          Z3        Z2        X2        X3        Y2
   1                    0.48891  -0.47681   0.34956  -0.33016   0.30287
                          Y3        Y7        Z5        Y4        Z7
   1                   -0.25443   0.21573   0.16836  -0.13822  -0.13010
 Quadratic step=1.302D+00 exceeds max=3.000D-01 adjusted using Lamda=-4.427D-03.
 Angle between NR and scaled steps=  33.31 degrees.
 Angle between quadratic step and forces=  45.76 degrees.
 Linear search not attempted -- first point.
 B after Tr=     0.000000    0.000000    0.000000
         Rot=    1.000000   -0.000000   -0.000000   -0.000000 Ang=   0.00 deg.
 Variable       Old X    -DE/DX   Delta X   Delta X   Delta X     New X
                                 (Linear)    (Quad)   (Total)
    X1       18.65417  -0.00000   0.00000   0.00000   0.00000  18.65417
    Y1       56.28908  -0.00000   0.00000  -0.00000  -0.00000  56.28908
    Z1        2.67831  -0.00000   0.00000  -0.00000  -0.00000   2.67831
    X2       19.89768  -0.00196   0.00000  -0.03955  -0.03955  19.85813
    Y2        3.96776   0.00418   0.00000   0.08443   0.08443   4.05219
    Z2       55.29509   0.00103   0.00000   0.02086   0.02086  55.31595
    X3       17.27714   0.00196   0.00000   0.03953   0.03953  17.31668
    Y3        9.55185  -0.00418   0.00000  -0.08443  -0.08443   9.46741
    Z3       56.67308  -0.00103   0.00000  -0.02086  -0.02086  56.65222
    X4       12.21997  -0.00086   0.00000   0.05408   0.05408  12.27405
    Y4        9.81227  -0.00290   0.00000  -0.07893  -0.07893   9.73334
    Z4        3.61123  -0.00037   0.00000  -0.07470  -0.07470   3.53653
    X5       10.45994   0.00688   0.00000   0.03878   0.03878  10.49872
    Y5        3.85073   0.00167   0.00000   0.05468   0.05468   3.90541
    Z5        3.99917   0.00246   0.00000   0.07746   0.07746   4.07663
    X6        5.15187  -0.00859   0.00000  -0.11172  -0.11172   5.04015
    Y6        4.39029   0.00125   0.00000   0.12580   0.12580   4.51609
    Z6        2.28247  -0.00028   0.00000   0.06031   0.06031   2.34278
    X7        0.07105   0.00256   0.00000   0.01887   0.01887   0.08992
    Y7        3.13196  -0.00002   0.00000  -0.10154  -0.10154   3.03042
    Z7        5.79074  -0.00181   0.00000  -0.06308  -0.06308   5.72767
         Item               Value     Threshold  Converged?
 Maximum Force            0.008587     0.000450     NO 
 RMS     Force            0.003051     0.000300     NO 
 Maximum Displacement     0.125800     0.001800     NO 
 RMS     Displacement     0.065491     0.001200     NO 
 Predicted change in Energy=-1.662835D-03
 GradGradGradGradGradGradGradGradGradGradGradGradGradGradGradGradGradGrad

 Leave Link  103 at Tue Nov 21 11:47:53 2023, MaxMem=   104857600 cpu:               2.7 elap:               2.3
 (Enter /home/sekinelabo/g16/l9999.exe)
 1\1\GINC-SEKINELABO-XA7R-R37\Force\UB3LYP\6-311+G(d)\Na7(2)\SEKINELABO
 \21-Nov-2023\0\\#P B3LYP/6-311+g(d) force\\DPGEN\\0,2\Na,9.87136,29.78
 69,1.4173\Na,10.5294,2.09965,29.2609\Na,9.14267,5.05462,29.9901\Na,6.4
 6653,5.19243,1.91098\Na,5.53516,2.03772,2.11627\Na,2.72625,2.32324,1.2
 0783\Na,0.037596,1.65736,3.06433\\Version=ES64L-G16RevB.01\State=2-A\H
 F=-1136.0869918\S2=0.750009\S2-1=0.\S2A=0.75\RMSD=6.643e-09\RMSF=3.051
 e-03\Dipole=0.3449873,0.2486811,0.0892821\Quadrupole=-2.1097754,5.9552
 781,-3.8455027,-6.2700494,-8.1474305,-3.8776891\PG=C01 [X(Na7)]\\@


 I DON'T PRETEND TO UNDERSTAND THE UNIVERSE --
 IT'S A GREAT DEAL BIGGER THAN I AM.
       -- ATTR. TO WILLIAM ALLINGHAM (1828-89)
 Job cpu time:       0 days  0 hours  7 minutes  6.9 seconds.
 Elapsed time:       0 days  0 hours  7 minutes 35.6 seconds.
 File lengths (MBytes):  RWF=     46 Int=      0 D2E=      0 Chk=      4 Scr=      1
 Normal termination of Gaussian 16 at Tue Nov 21 11:47:54 2023.
