 Entering Gaussian System, Link 0=g16
 Initial command:
 /home/sekinelabo/g16/l1.exe "/home/sekinelabo/g16temp/Gau-1046530.inp" -scrdir="/home/sekinelabo/g16temp/"
 Entering Link 1 = /home/sekinelabo/g16/l1.exe PID=   1046564.
  
 Copyright (c) 1988-2017, Gaussian, Inc.  All Rights Reserved.
  
 This is part of the Gaussian(R) 16 program.  It is based on
 the Gaussian(R) 09 system (copyright 2009, Gaussian, Inc.),
 the Gaussian(R) 03 system (copyright 2003, Gaussian, Inc.),
 the Gaussian(R) 98 system (copyright 1998, Gaussian, Inc.),
 the Gaussian(R) 94 system (copyright 1995, Gaussian, Inc.),
 the Gaussian 92(TM) system (copyright 1992, Gaussian, Inc.),
 the Gaussian 90(TM) system (copyright 1990, Gaussian, Inc.),
 the Gaussian 88(TM) system (copyright 1988, Gaussian, Inc.),
 the Gaussian 86(TM) system (copyright 1986, Carnegie Mellon
 University), and the Gaussian 82(TM) system (copyright 1983,
 Carnegie Mellon University). Gaussian is a federally registered
 trademark of Gaussian, Inc.
  
 This software contains proprietary and confidential information,
 including trade secrets, belonging to Gaussian, Inc.
  
 This software is provided under written license and may be
 used, copied, transmitted, or stored only in accord with that
 written license.
  
 The following legend is applicable only to US Government
 contracts under FAR:
  
                    RESTRICTED RIGHTS LEGEND
  
 Use, reproduction and disclosure by the US Government is
 subject to restrictions as set forth in subparagraphs (a)
 and (c) of the Commercial Computer Software - Restricted
 Rights clause in FAR 52.227-19.
  
 Gaussian, Inc.
 340 Quinnipiac St., Bldg. 40, Wallingford CT 06492
  
  
 ---------------------------------------------------------------
 Warning -- This program may not be used in any manner that
 competes with the business of Gaussian, Inc. or will provide
 assistance to any competitor of Gaussian, Inc.  The licensee
 of this program is prohibited from giving any competitor of
 Gaussian, Inc. access to this program.  By using this program,
 the user acknowledges that Gaussian, Inc. is engaged in the
 business of creating and licensing software in the field of
 computational chemistry and represents and warrants to the
 licensee that it is not a competitor of Gaussian, Inc. and that
 it will not use this program in any manner prohibited above.
 ---------------------------------------------------------------
  

 Cite this work as:
 Gaussian 16, Revision B.01,
 M. J. Frisch, G. W. Trucks, H. B. Schlegel, G. E. Scuseria, 
 M. A. Robb, J. R. Cheeseman, G. Scalmani, V. Barone, 
 G. A. Petersson, H. Nakatsuji, X. Li, M. Caricato, A. V. Marenich, 
 J. Bloino, B. G. Janesko, R. Gomperts, B. Mennucci, H. P. Hratchian, 
 J. V. Ortiz, A. F. Izmaylov, J. L. Sonnenberg, D. Williams-Young, 
 F. Ding, F. Lipparini, F. Egidi, J. Goings, B. Peng, A. Petrone, 
 T. Henderson, D. Ranasinghe, V. G. Zakrzewski, J. Gao, N. Rega, 
 G. Zheng, W. Liang, M. Hada, M. Ehara, K. Toyota, R. Fukuda, 
 J. Hasegawa, M. Ishida, T. Nakajima, Y. Honda, O. Kitao, H. Nakai, 
 T. Vreven, K. Throssell, J. A. Montgomery, Jr., J. E. Peralta, 
 F. Ogliaro, M. J. Bearpark, J. J. Heyd, E. N. Brothers, K. N. Kudin, 
 V. N. Staroverov, T. A. Keith, R. Kobayashi, J. Normand, 
 K. Raghavachari, A. P. Rendell, J. C. Burant, S. S. Iyengar, 
 J. Tomasi, M. Cossi, J. M. Millam, M. Klene, C. Adamo, R. Cammi, 
 J. W. Ochterski, R. L. Martin, K. Morokuma, O. Farkas, 
 J. B. Foresman, and D. J. Fox, Gaussian, Inc., Wallingford CT, 2016.
 
 ******************************************
 Gaussian 16:  ES64L-G16RevB.01 20-Dec-2017
                23-Nov-2023 
 ******************************************
 %nprocshared=14
 Will use up to   14 processors via shared memory.
 -------------------------
 #P B3LYP/6-311+g(d) force
 -------------------------
 1/10=7,30=1,38=1/1,3;
 2/12=2,17=6,18=5,40=1/2;
 3/5=4,6=6,7=11,11=2,25=1,30=1,71=1,74=-5/1,2,3;
 4//1;
 5/5=2,38=5/2;
 6/7=2,8=2,9=2,10=2,28=1/1;
 7/29=1/1,2,3,16;
 1/10=7,30=1/3;
 99//99;
 Leave Link    1 at Thu Nov 23 12:30:21 2023, MaxMem=           0 cpu:               0.5 elap:               0.8
 (Enter /home/sekinelabo/g16/l101.exe)
 -----
 DPGEN
 -----
 Symbolic Z-matrix:
 Charge =  0 Multiplicity = 2
 Na                    15.2832   99.5198   1.46073 
 Na                    12.3074   0.05229   1.69584 
 Na                    8.87132   2.69218   1.85914 
 Na                    6.03124   3.50522   1.82344 
 Na                    3.17224   5.51812   99.9235 
 Na                    99.404    4.04101   99.6834 
 Na                    99.2396   2.82331   2.5216 
 
 ITRead=  0  0  0  0  0  0  0
 MicOpt= -1 -1 -1 -1 -1 -1 -1
 NAtoms=      7 NQM=        7 NQMF=       0 NMMI=      0 NMMIF=      0
                NMic=       0 NMicF=      0.
                    Isotopes and Nuclear Properties:
 (Nuclear quadrupole moments (NQMom) in fm**2, nuclear magnetic moments (NMagM)
  in nuclear magnetons)

  Atom         1           2           3           4           5           6           7
 IAtWgt=          23          23          23          23          23          23          23
 AtmWgt=  22.9897697  22.9897697  22.9897697  22.9897697  22.9897697  22.9897697  22.9897697
 NucSpn=           3           3           3           3           3           3           3
 AtZEff=  -0.0000000  -0.0000000  -0.0000000  -0.0000000  -0.0000000  -0.0000000  -0.0000000
 NQMom=   10.4000000  10.4000000  10.4000000  10.4000000  10.4000000  10.4000000  10.4000000
 NMagM=    2.2175200   2.2175200   2.2175200   2.2175200   2.2175200   2.2175200   2.2175200
 AtZNuc=  11.0000000  11.0000000  11.0000000  11.0000000  11.0000000  11.0000000  11.0000000
 Leave Link  101 at Thu Nov 23 12:30:23 2023, MaxMem=   104857600 cpu:               2.6 elap:               2.8
 (Enter /home/sekinelabo/g16/l103.exe)

 GradGradGradGradGradGradGradGradGradGradGradGradGradGradGradGradGradGrad
 Berny optimization.
 Initialization pass.
 Trust Radius=3.00D-01 FncErr=1.00D-07 GrdErr=1.00D-07 EigMax=2.50D+02 EigMin=1.00D-04
 Number of steps in this run=      2 maximum allowed number of steps=      2.
 GradGradGradGradGradGradGradGradGradGradGradGradGradGradGradGradGradGrad

 Leave Link  103 at Thu Nov 23 12:30:24 2023, MaxMem=   104857600 cpu:               0.4 elap:               0.6
 (Enter /home/sekinelabo/g16/l202.exe)
                          Input orientation:                          
 ---------------------------------------------------------------------
 Center     Atomic      Atomic             Coordinates (Angstroms)
 Number     Number       Type             X           Y           Z
 ---------------------------------------------------------------------
      1         11           0       15.283200   99.519800    1.460730
      2         11           0       12.307400    0.052285    1.695840
      3         11           0        8.871320    2.692180    1.859140
      4         11           0        6.031240    3.505220    1.823440
      5         11           0        3.172240    5.518120   99.923500
      6         11           0       99.404000    4.041010   99.683400
      7         11           0       99.239600    2.823310    2.521600
 ---------------------------------------------------------------------
                    Distance matrix (angstroms):
                    1          2          3          4          5
     1  Na   0.000000
     2  Na  99.512297   0.000000
     3  Na  97.040501   4.336169   0.000000
     4  Na  96.459991   7.164442   2.954380   0.000000
     5  Na 136.667144  98.802832  98.270464  98.162352   0.000000
     6  Na 160.748876 131.161311 133.295054 135.260235  96.243395
     7  Na 128.062538  86.980273  90.370803  93.213469 136.833219
                    6          7
     6  Na   0.000000
     7  Na  97.169569   0.000000
 Stoichiometry    Na7(2)
 Framework group  C1[X(Na7)]
 Deg. of freedom    15
 Full point group                 C1      NOp   1
 Largest Abelian subgroup         C1      NOp   1
 Largest concise Abelian subgroup C1      NOp   1
                         Standard orientation:                         
 ---------------------------------------------------------------------
 Center     Atomic      Atomic             Coordinates (Angstroms)
 Number     Number       Type             X           Y           Z
 ---------------------------------------------------------------------
      1         11           0      -58.824085   -0.385831   67.528279
      2         11           0      -28.916112   -0.672183  -27.382881
      3         11           0      -31.571719   -3.570408  -25.552471
      4         11           0      -33.464271   -5.832373  -25.378905
      5         11           0       38.956334  -67.288852   -0.595753
      6         11           0       93.744904    9.644008   17.906641
      7         11           0       20.074949   68.105639   -6.524909
 ---------------------------------------------------------------------
 Rotational constants (GHZ):           0.0013505           0.0009124           0.0008318
 Leave Link  202 at Thu Nov 23 12:30:25 2023, MaxMem=   104857600 cpu:               0.8 elap:               1.0
 (Enter /home/sekinelabo/g16/l301.exe)
 Standard basis: 6-311+G(d) (5D, 7F)
 Ernie: Thresh=  0.10000D-02 Tol=  0.10000D-05 Strict=F.
 There are   217 symmetry adapted cartesian basis functions of A   symmetry.
 There are   210 symmetry adapted basis functions of A   symmetry.
   210 basis functions,   350 primitive gaussians,   217 cartesian basis functions
    39 alpha electrons       38 beta electrons
       nuclear repulsion energy        56.0284753226 Hartrees.
 IExCor=  402 DFT=T Ex+Corr=B3LYP ExCW=0 ScaHFX=  0.200000
 ScaDFX=  0.800000  0.720000  1.000000  0.810000 ScalE2=  1.000000  1.000000
 IRadAn=      5 IRanWt=     -1 IRanGd=            0 ICorTp=0 IEmpDi=  4
 NAtoms=    7 NActive=    7 NUniq=    7 SFac= 1.00D+00 NAtFMM=   60 NAOKFM=F Big=F
 Integral buffers will be    131072 words long.
 Raffenetti 2 integral format.
 Two-electron integral symmetry is turned on.
 Leave Link  301 at Thu Nov 23 12:30:26 2023, MaxMem=   104857600 cpu:               0.7 elap:               0.9
 (Enter /home/sekinelabo/g16/l302.exe)
 NPDir=0 NMtPBC=     1 NCelOv=     1 NCel=       1 NClECP=     1 NCelD=      1
         NCelK=      1 NCelE2=     1 NClLst=     1 CellRange=     0.0.
 One-electron integrals computed using PRISM.
 One-electron integral symmetry used in STVInt
 NBasis=   210 RedAO= T EigKep=  2.17D-05  NBF=   210
 NBsUse=   210 1.00D-06 EigRej= -1.00D+00 NBFU=   210
 Precomputing XC quadrature grid using
 IXCGrd= 4 IRadAn=           5 IRanWt=          -1 IRanGd=           0 AccXCQ= 0.00D+00.
 Generated NRdTot=       0 NPtTot=           0 NUsed=           0 NTot=          32
 NSgBfM=    86    86    86    86    86 MxSgAt=     7 MxSgA2=     3.
 Leave Link  302 at Thu Nov 23 12:30:57 2023, MaxMem=   104857600 cpu:              25.0 elap:              30.5
 (Enter /home/sekinelabo/g16/l303.exe)
 DipDrv:  MaxL=1.
 Leave Link  303 at Thu Nov 23 12:31:00 2023, MaxMem=   104857600 cpu:               2.1 elap:               2.7
 (Enter /home/sekinelabo/g16/l401.exe)
 ExpMin= 7.60D-03 ExpMax= 3.62D+04 ExpMxC= 1.21D+03 IAcc=3 IRadAn=         5 AccDes= 0.00D+00
 Harris functional with IExCor=  402 and IRadAn=       5 diagonalized for initial guess.
 HarFok:  IExCor=  402 AccDes= 0.00D+00 IRadAn=         5 IDoV= 1 UseB2=F ITyADJ=14
 ICtDFT=  3500011 ScaDFX=  1.000000  1.000000  1.000000  1.000000
 FoFCou: FMM=F IPFlag=           0 FMFlag=      100000 FMFlg1=           0
         NFxFlg=           0 DoJE=T BraDBF=F KetDBF=T FulRan=T
         wScrn=  0.000000 ICntrl=       500 IOpCl=  0 I1Cent=   200000004 NGrid=           0
         NMat0=    1 NMatS0=      1 NMatT0=    0 NMatD0=    1 NMtDS0=    0 NMtDT0=    0
 Petite list used in FoFCou.
 Harris En= -1135.78646509706    
 JPrj=0 DoOrth=F DoCkMO=F.
 Initial guess <Sx>= 0.0000 <Sy>= 0.0000 <Sz>= 0.5000 <S**2>= 0.7500 S= 0.5000
 Leave Link  401 at Thu Nov 23 12:31:21 2023, MaxMem=   104857600 cpu:              17.1 elap:              20.7
 (Enter /home/sekinelabo/g16/l502.exe)
 Integral symmetry usage will be decided dynamically.
 UHF open shell SCF:
 Using DIIS extrapolation, IDIIS=  1040.
 NGot=   104857600 LenX=   104758440 LenY=   104710910
 Requested convergence on RMS density matrix=1.00D-08 within 128 cycles.
 Requested convergence on MAX density matrix=1.00D-06.
 Requested convergence on             energy=1.00D-06.
 No special actions if energy rises.
 Fock matrices will be formed incrementally for  20 cycles.

 Cycle   1  Pass 1  IDiag  1:
 FoFJK:  IHMeth= 1 ICntrl=       0 DoSepK=F KAlg= 0 I1Cent=           0 FoldK=F
 IRaf= 260000000 NMat=       1 IRICut=       1 DoRegI=T DoRafI=F ISym2E= 0 IDoP0=0 IntGTp=1.
 FoFCou: FMM=F IPFlag=           0 FMFlag=      100000 FMFlg1=           0
         NFxFlg=           0 DoJE=F BraDBF=F KetDBF=F FulRan=T
         wScrn=  0.000000 ICntrl=         0 IOpCl=  1 I1Cent=           0 NGrid=           0
         NMat0=    1 NMatS0=      1 NMatT0=    0 NMatD0=    1 NMtDS0=    0 NMtDT0=    0
 Symmetry not used in FoFCou.
 E= -1135.76434165287    
 DIIS: error= 2.08D-02 at cycle   1 NSaved=   1.
 NSaved= 1 IEnMin= 1 EnMin= -1135.76434165287     IErMin= 1 ErrMin= 2.08D-02
 ErrMax= 2.08D-02  0.00D+00 EMaxC= 1.00D-01 BMatC= 2.23D-01 BMatP= 2.23D-01
 IDIUse=3 WtCom= 7.92D-01 WtEn= 2.08D-01
 Coeff-Com:  0.100D+01
 Coeff-En:   0.100D+01
 Coeff:      0.100D+01
 Gap=    -0.079 Goal=   None    Shift=    0.000
 Gap=    -0.047 Goal=   None    Shift=    0.000
 GapD=   -0.079 DampG=0.250 DampE=0.500 DampFc=0.2500 IDamp=-1.
 Damping current iteration by 2.50D-01
 RMSDP=1.06D-02 MaxDP=1.11D+00              OVMax= 1.00D+00

 Cycle   2  Pass 1  IDiag  1:
 RMSU=  2.61D-03    CP:  9.77D-01
 E= -1135.84596031423     Delta-E=       -0.081618661358 Rises=F Damp=T
 DIIS: error= 1.45D-02 at cycle   2 NSaved=   2.
 NSaved= 2 IEnMin= 2 EnMin= -1135.84596031423     IErMin= 2 ErrMin= 1.45D-02
 ErrMax= 1.45D-02  0.00D+00 EMaxC= 1.00D-01 BMatC= 7.69D-02 BMatP= 2.23D-01
 IDIUse=3 WtCom= 8.55D-01 WtEn= 1.45D-01
 Coeff-Com: -0.463D+00 0.146D+01
 Coeff-En:   0.319D+00 0.681D+00
 Coeff:     -0.350D+00 0.135D+01
 Gap=     0.020 Goal=   None    Shift=    0.000
 Gap=     0.019 Goal=   None    Shift=    0.000
 RMSDP=5.32D-03 MaxDP=5.79D-01 DE=-8.16D-02 OVMax= 1.00D+00

 Cycle   3  Pass 1  IDiag  1:
 RMSU=  5.13D-03    CP:  9.85D-01  4.68D-01
 E= -1135.62940181963     Delta-E=        0.216558494603 Rises=F Damp=F
 DIIS: error= 1.18D-02 at cycle   3 NSaved=   3.
 NSaved= 3 IEnMin= 2 EnMin= -1135.84596031423     IErMin= 3 ErrMin= 1.18D-02
 ErrMax= 1.18D-02  0.00D+00 EMaxC= 1.00D-01 BMatC= 6.97D-02 BMatP= 7.69D-02
 IDIUse=3 WtCom= 8.82D-01 WtEn= 1.18D-01
 EnCoef did     5 forward-backward iterations
 Coeff-Com: -0.224D+00 0.749D+00 0.475D+00
 Coeff-En:   0.135D+00 0.645D+00 0.219D+00
 Coeff:     -0.181D+00 0.737D+00 0.445D+00
 Gap=    -0.042 Goal=   None    Shift=    0.000
 Gap=    -0.032 Goal=   None    Shift=    0.000
 RMSDP=7.77D-03 MaxDP=8.61D-01 DE= 2.17D-01 OVMax= 1.00D+00

 Cycle   4  Pass 1  IDiag  1:
 RMSU=  5.24D-03    CP:  9.59D-01  1.41D+00 -4.74D-03
 E= -1135.62156047773     Delta-E=        0.007841341902 Rises=F Damp=F
 DIIS: error= 1.34D-02 at cycle   4 NSaved=   4.
 NSaved= 4 IEnMin= 2 EnMin= -1135.84596031423     IErMin= 3 ErrMin= 1.18D-02
 ErrMax= 1.34D-02  0.00D+00 EMaxC= 1.00D-01 BMatC= 4.89D-02 BMatP= 6.97D-02
 IDIUse=3 WtCom= 8.66D-01 WtEn= 1.34D-01
 EnCoef did     5 forward-backward iterations
 Coeff-Com: -0.961D-01 0.414D+00 0.351D+00 0.332D+00
 Coeff-En:   0.160D+00 0.194D+00 0.310D+00 0.337D+00
 Coeff:     -0.617D-01 0.384D+00 0.345D+00 0.333D+00
 Gap=     0.128 Goal=   None    Shift=    0.000
 Gap=     0.026 Goal=   None    Shift=    0.000
 RMSDP=7.68D-03 MaxDP=8.61D-01 DE= 7.84D-03 OVMax= 1.00D+00

 Cycle   5  Pass 1  IDiag  1:
 RMSU=  4.19D-03    CP:  9.75D-01  1.02D+00  1.43D-01 -2.02D-01
 E= -1135.65645881872     Delta-E=       -0.034898340992 Rises=F Damp=F
 DIIS: error= 1.22D-02 at cycle   5 NSaved=   5.
 NSaved= 5 IEnMin= 2 EnMin= -1135.84596031423     IErMin= 3 ErrMin= 1.18D-02
 ErrMax= 1.22D-02  0.00D+00 EMaxC= 1.00D-01 BMatC= 3.45D-02 BMatP= 4.89D-02
 IDIUse=3 WtCom= 8.78D-01 WtEn= 1.22D-01
 EnCoef did     7 forward-backward iterations
 Coeff-Com: -0.358D-01 0.211D+00 0.241D+00 0.286D+00 0.298D+00
 Coeff-En:   0.108D+00 0.000D+00 0.206D+00 0.395D+00 0.291D+00
 Coeff:     -0.184D-01 0.185D+00 0.237D+00 0.299D+00 0.297D+00
 Gap=    -0.001 Goal=   None    Shift=    0.000
 Gap=    -0.042 Goal=   None    Shift=    0.000
 RMSDP=7.42D-03 MaxDP=7.11D-01 DE=-3.49D-02 OVMax= 1.00D+00

 Cycle   6  Pass 1  IDiag  1:
 RMSU=  3.39D-03    CP:  9.67D-01  7.20D-01  4.47D-01  6.06D-01 -1.31D-01
 E= -1135.64795948065     Delta-E=        0.008499338063 Rises=F Damp=F
 DIIS: error= 1.27D-02 at cycle   6 NSaved=   6.
 NSaved= 6 IEnMin= 2 EnMin= -1135.84596031423     IErMin= 3 ErrMin= 1.18D-02
 ErrMax= 1.27D-02  0.00D+00 EMaxC= 1.00D-01 BMatC= 3.34D-02 BMatP= 3.45D-02
 IDIUse=3 WtCom= 8.78D-01 WtEn= 1.22D-01
 EnCoef did    15 forward-backward iterations
 Coeff-Com: -0.481D-01 0.207D+00 0.192D+00 0.210D+00 0.303D+00 0.136D+00
 Coeff-En:   0.340D-01 0.000D+00 0.135D+00 0.310D+00 0.352D+00 0.169D+00
 Coeff:     -0.381D-01 0.182D+00 0.185D+00 0.222D+00 0.309D+00 0.140D+00
 Gap=     0.039 Goal=   None    Shift=    0.000
 Gap=    -0.030 Goal=   None    Shift=    0.000
 RMSDP=3.56D-03 MaxDP=6.14D-01 DE= 8.50D-03 OVMax= 1.00D+00

 Cycle   7  Pass 1  IDiag  1:
 RMSU=  2.45D-03    CP:  9.65D-01  1.09D+00  1.95D-01  6.81D-01 -1.79D-01
                    CP:  4.19D-01
 E= -1135.65486254833     Delta-E=       -0.006903067678 Rises=F Damp=F
 DIIS: error= 1.20D-02 at cycle   7 NSaved=   7.
 NSaved= 7 IEnMin= 2 EnMin= -1135.84596031423     IErMin= 3 ErrMin= 1.18D-02
 ErrMax= 1.20D-02  0.00D+00 EMaxC= 1.00D-01 BMatC= 3.04D-02 BMatP= 3.34D-02
 IDIUse=3 WtCom= 8.80D-01 WtEn= 1.20D-01
 EnCoef did   100 forward-backward iterations
 Coeff-Com: -0.554D-01 0.193D+00 0.163D+00 0.485D-01 0.316D+00 0.710D-01
 Coeff-Com:  0.264D+00
 Coeff-En:   0.257D-04 0.000D+00 0.000D+00 0.111D-01 0.498D+00 0.125D-01
 Coeff-En:   0.478D+00
 Coeff:     -0.487D-01 0.170D+00 0.144D+00 0.440D-01 0.338D+00 0.640D-01
 Coeff:      0.290D+00
 Gap=     0.000 Goal=   None    Shift=    0.000
 Gap=    -0.011 Goal=   None    Shift=    0.000
 RMSDP=4.74D-03 MaxDP=6.14D-01 DE=-6.90D-03 OVMax= 1.00D+00

 Cycle   8  Pass 1  IDiag  1:
 RMSU=  2.48D-03    CP:  9.68D-01  1.01D+00  6.25D-02  6.40D-01  1.80D-01
                    CP:  4.09D-02 -4.06D-01
 E= -1135.83495404077     Delta-E=       -0.180091492442 Rises=F Damp=F
 DIIS: error= 1.17D-02 at cycle   8 NSaved=   8.
 NSaved= 8 IEnMin= 2 EnMin= -1135.84596031423     IErMin= 8 ErrMin= 1.17D-02
 ErrMax= 1.17D-02  0.00D+00 EMaxC= 1.00D-01 BMatC= 1.51D-02 BMatP= 3.04D-02
 IDIUse=3 WtCom= 8.83D-01 WtEn= 1.17D-01
 EnCoef did   100 forward-backward iterations
 Rare condition: small coef for last iteration:  0.435D-15
 Coeff-Com: -0.822D-01 0.175D+00 0.106D+00-0.278D+00 0.221D+00-0.917D-02
 Coeff-Com:  0.329D+00 0.539D+00
 Coeff-En:   0.000D+00 0.000D+00 0.149D+00 0.000D+00 0.297D+00 0.137D+00
 Coeff-En:   0.535D-01 0.362D+00
 Coeff:     -0.822D-01 0.175D+00 0.106D+00-0.278D+00 0.221D+00-0.917D-02
 Coeff:      0.329D+00 0.539D+00
 Gap=    -0.039 Goal=   None    Shift=    0.000
 Gap=    -0.004 Goal=   None    Shift=    0.000
 RMSDP=6.22D-03 MaxDP=6.89D-01 DE=-1.80D-01 OVMax= 1.00D+00

 Cycle   9  Pass 1  IDiag  1:
 RMSU=  3.09D-03    CP:  9.49D-01  1.67D+00  6.63D-01  3.60D-01  1.38D-01
                    CP:  1.75D-01  2.20D-01 -3.85D-01
 E= -1135.62698386040     Delta-E=        0.207970180371 Rises=F Damp=F
 DIIS: error= 1.26D-02 at cycle   9 NSaved=   9.
 NSaved= 9 IEnMin= 2 EnMin= -1135.84596031423     IErMin= 8 ErrMin= 1.17D-02
 ErrMax= 1.26D-02  0.00D+00 EMaxC= 1.00D-01 BMatC= 3.82D-02 BMatP= 1.51D-02
 IDIUse=2 WtCom= 0.00D+00 WtEn= 1.00D+00
 EnCoef did   100 forward-backward iterations
 Coeff-En:   0.980D-02 0.000D+00 0.123D+00 0.000D+00 0.140D+00 0.124D-01
 Coeff-En:   0.000D+00 0.495D+00 0.220D+00
 Coeff:      0.980D-02 0.000D+00 0.123D+00 0.000D+00 0.140D+00 0.124D-01
 Coeff:      0.000D+00 0.495D+00 0.220D+00
 Gap=     0.025 Goal=   None    Shift=    0.000
 Gap=    -0.010 Goal=   None    Shift=    0.000
 RMSDP=3.85D-03 MaxDP=6.51D-01 DE= 2.08D-01 OVMax= 8.53D-01

 Cycle  10  Pass 1  IDiag  1:
 RMSU=  1.42D-03    CP:  9.62D-01  1.05D+00  6.36D-01  1.32D-01  4.14D-01
                    CP:  3.32D-01 -3.19D-01  4.81D-01  7.33D-01
 E= -1135.83001396991     Delta-E=       -0.203030109510 Rises=F Damp=F
 DIIS: error= 1.22D-02 at cycle  10 NSaved=  10.
 NSaved=10 IEnMin= 2 EnMin= -1135.84596031423     IErMin= 8 ErrMin= 1.17D-02
 ErrMax= 1.22D-02  0.00D+00 EMaxC= 1.00D-01 BMatC= 1.67D-02 BMatP= 1.51D-02
 IDIUse=2 WtCom= 0.00D+00 WtEn= 1.00D+00
 Coeff-En:   0.000D+00 0.000D+00 0.000D+00 0.000D+00 0.000D+00 0.000D+00
 Coeff-En:   0.000D+00 0.504D+00 0.000D+00 0.496D+00
 Coeff:      0.000D+00 0.000D+00 0.000D+00 0.000D+00 0.000D+00 0.000D+00
 Coeff:      0.000D+00 0.504D+00 0.000D+00 0.496D+00
 Gap=     0.046 Goal=   None    Shift=    0.000
 Gap=     0.002 Goal=   None    Shift=    0.000
 RMSDP=1.29D-03 MaxDP=1.08D-01 DE=-2.03D-01 OVMax= 2.17D-01

 Cycle  11  Pass 1  IDiag  1:
 RMSU=  9.26D-04    CP:  9.61D-01  1.09D+00  6.53D-01  1.75D-01  3.43D-01
                    CP:  1.97D-01 -3.32D-01  4.89D-01  6.90D-01  5.42D-01
 E= -1135.84052451546     Delta-E=       -0.010510545549 Rises=F Damp=F
 DIIS: error= 1.11D-02 at cycle  11 NSaved=  11.
 NSaved=11 IEnMin= 2 EnMin= -1135.84596031423     IErMin=11 ErrMin= 1.11D-02
 ErrMax= 1.11D-02  0.00D+00 EMaxC= 1.00D-01 BMatC= 1.14D-02 BMatP= 1.51D-02
 IDIUse=3 WtCom= 8.89D-01 WtEn= 1.11D-01
 Coeff-Com: -0.265D-01 0.610D-01-0.651D-01 0.189D+00 0.628D-01-0.283D+00
 Coeff-Com:  0.466D+00-0.129D+00-0.507D+00 0.344D-01 0.120D+01
 Coeff-En:   0.000D+00 0.000D+00 0.000D+00 0.000D+00 0.000D+00 0.000D+00
 Coeff-En:   0.000D+00 0.496D+00 0.000D+00 0.000D+00 0.504D+00
 Coeff:     -0.236D-01 0.542D-01-0.579D-01 0.168D+00 0.558D-01-0.251D+00
 Coeff:      0.414D+00-0.594D-01-0.451D+00 0.306D-01 0.112D+01
 Gap=    -0.085 Goal=   None    Shift=    0.000
 Gap=    -0.115 Goal=   None    Shift=    0.000
 RMSDP=5.86D-03 MaxDP=9.33D-01 DE=-1.05D-02 OVMax= 1.00D+00

 Cycle  12  Pass 1  IDiag  1:
 RMSU=  1.20D-03    CP:  9.70D-01  9.49D-01  1.06D-02  8.47D-01  1.62D-01
                    CP:  1.10D-01 -5.76D-01  7.06D-01 -2.32D-01  3.69D-01
                    CP:  9.19D-01
 E= -1135.81660666831     Delta-E=        0.023917847155 Rises=F Damp=F
 DIIS: error= 1.41D-02 at cycle  12 NSaved=  12.
 NSaved=12 IEnMin= 2 EnMin= -1135.84596031423     IErMin=11 ErrMin= 1.11D-02
 ErrMax= 1.41D-02  0.00D+00 EMaxC= 1.00D-01 BMatC= 2.56D-02 BMatP= 1.14D-02
 IDIUse=2 WtCom= 0.00D+00 WtEn= 1.00D+00
 Rare condition: small coef for last iteration:  0.000D+00
 Coeff-En:   0.000D+00 0.000D+00 0.000D+00 0.000D+00 0.000D+00 0.000D+00
 Coeff-En:   0.000D+00 0.118D-01 0.000D+00 0.000D+00 0.511D+00 0.477D+00
 Coeff:      0.000D+00 0.000D+00 0.000D+00 0.000D+00 0.000D+00 0.000D+00
 Coeff:      0.000D+00 0.118D-01 0.000D+00 0.000D+00 0.511D+00 0.477D+00
 Gap=     0.046 Goal=   None    Shift=    0.000
 Gap=     0.065 Goal=   None    Shift=    0.000
 RMSDP=6.07D-03 MaxDP=9.33D-01 DE= 2.39D-02 OVMax= 1.00D+00

 Cycle  13  Pass 1  IDiag  1:
 RMSU=  2.74D-03    CP:  9.64D-01  1.04D+00  4.68D-01  1.21D-01  3.95D-01
                    CP: -1.51D-01 -7.73D-01  3.02D-01  3.81D-01  5.33D-01
                    CP:  4.25D-02 -1.81D-01
 E= -1135.86190114276     Delta-E=       -0.045294474452 Rises=F Damp=F
 DIIS: error= 5.72D-03 at cycle  13 NSaved=  13.
 NSaved=13 IEnMin=13 EnMin= -1135.86190114276     IErMin=13 ErrMin= 5.72D-03
 ErrMax= 5.72D-03  0.00D+00 EMaxC= 1.00D-01 BMatC= 1.32D-02 BMatP= 1.14D-02
 IDIUse=3 WtCom= 8.89D-01 WtEn= 1.11D-01
 EnCoef did   100 forward-backward iterations
 Rare condition: small coef for last iteration:  0.000D+00
 Coeff-Com: -0.355D-01 0.712D-01-0.702D-01 0.123D+00 0.120D-01-0.276D+00
 Coeff-Com:  0.390D+00-0.205D+00-0.389D+00-0.146D-02 0.107D+01 0.183D+00
 Coeff-Com:  0.125D+00
 Coeff-En:   0.000D+00 0.000D+00 0.000D+00 0.000D+00 0.000D+00 0.720D-01
 Coeff-En:   0.000D+00 0.156D+00 0.000D+00 0.000D+00 0.208D+00 0.256D+00
 Coeff-En:   0.308D+00
 Coeff:     -0.355D-01 0.712D-01-0.702D-01 0.123D+00 0.120D-01-0.276D+00
 Coeff:      0.390D+00-0.205D+00-0.389D+00-0.146D-02 0.107D+01 0.183D+00
 Coeff:      0.125D+00
 Gap=    -0.018 Goal=   None    Shift=    0.000
 Gap=    -0.117 Goal=   None    Shift=    0.000
 RMSDP=6.48D-03 MaxDP=1.03D+00 DE=-4.53D-02 OVMax= 1.00D+00

 Cycle  14  Pass 1  IDiag  1:
 RMSU=  2.88D-04    CP:  9.70D-01  9.29D-01 -9.69D-03  9.08D-01  1.58D-01
                    CP:  1.44D-01 -6.24D-01  6.04D-01 -3.01D-01  4.48D-01
                    CP:  1.05D+00  1.22D+00 -2.42D-02
 E= -1135.80968817384     Delta-E=        0.052212968917 Rises=F Damp=F
 DIIS: error= 1.46D-02 at cycle  14 NSaved=  14.
 NSaved=14 IEnMin=13 EnMin= -1135.86190114276     IErMin=13 ErrMin= 5.72D-03
 ErrMax= 1.46D-02  0.00D+00 EMaxC= 1.00D-01 BMatC= 2.98D-02 BMatP= 1.14D-02
 IDIUse=2 WtCom= 0.00D+00 WtEn= 1.00D+00
 EnCoef did   100 forward-backward iterations
 Rare condition: small coef for last iteration:  0.000D+00
 Coeff-En:   0.000D+00 0.000D+00 0.000D+00 0.000D+00 0.000D+00 0.712D-01
 Coeff-En:   0.000D+00 0.157D+00 0.000D+00 0.000D+00 0.207D+00 0.190D-02
 Coeff-En:   0.311D+00 0.251D+00
 Coeff:      0.000D+00 0.000D+00 0.000D+00 0.000D+00 0.000D+00 0.712D-01
 Coeff:      0.000D+00 0.157D+00 0.000D+00 0.000D+00 0.207D+00 0.190D-02
 Coeff:      0.311D+00 0.251D+00
 Gap=     0.028 Goal=   None    Shift=    0.000
 Gap=     0.091 Goal=   None    Shift=    0.000
 RMSDP=6.49D-03 MaxDP=1.03D+00 DE= 5.22D-02 OVMax= 1.00D+00

 Cycle  15  Pass 1  IDiag  1:
 RMSU=  5.14D-04    CP:  9.58D-01  1.16D+00  6.74D-01  1.73D-01  3.54D-01
                    CP:  3.09D-01 -3.83D-01  4.02D-01  7.73D-01  4.63D-01
                    CP:  6.06D-01  2.34D-01 -2.94D-02  4.76D-01
 E= -1135.83249129856     Delta-E=       -0.022803124715 Rises=F Damp=F
 DIIS: error= 1.21D-02 at cycle  15 NSaved=  15.
 NSaved=15 IEnMin=13 EnMin= -1135.86190114276     IErMin=13 ErrMin= 5.72D-03
 ErrMax= 1.21D-02  0.00D+00 EMaxC= 1.00D-01 BMatC= 1.62D-02 BMatP= 1.14D-02
 IDIUse=2 WtCom= 0.00D+00 WtEn= 1.00D+00
 EnCoef did   100 forward-backward iterations
 Coeff-En:   0.000D+00 0.000D+00 0.000D+00 0.000D+00 0.000D+00 0.000D+00
 Coeff-En:   0.000D+00 0.483D+00 0.000D+00 0.288D-04 0.501D+00 0.450D-02
 Coeff-En:   0.290D-02 0.701D-02 0.150D-02
 Coeff:      0.000D+00 0.000D+00 0.000D+00 0.000D+00 0.000D+00 0.000D+00
 Coeff:      0.000D+00 0.483D+00 0.000D+00 0.288D-04 0.501D+00 0.450D-02
 Coeff:      0.290D-02 0.701D-02 0.150D-02
 Gap=     0.001 Goal=   None    Shift=    0.000
 Gap=     0.041 Goal=   None    Shift=    0.000
 RMSDP=3.68D-03 MaxDP=6.66D-01 DE=-2.28D-02 OVMax= 1.00D+00

 Cycle  16  Pass 1  IDiag  1:
 RMSU=  1.86D-03    CP:  9.67D-01  1.02D+00  3.12D-01  3.66D-01  3.92D-01
                    CP:  1.62D-01  1.00D-01  8.36D-01  2.93D-01  5.72D-01
                    CP:  7.85D-01  2.91D-01 -9.90D-02 -1.19D+00  6.85D-01
 E= -1136.03698055166     Delta-E=       -0.204489253101 Rises=F Damp=F
 DIIS: error= 2.38D-03 at cycle  16 NSaved=  16.
 NSaved=16 IEnMin=16 EnMin= -1136.03698055166     IErMin=16 ErrMin= 2.38D-03
 ErrMax= 2.38D-03  0.00D+00 EMaxC= 1.00D-01 BMatC= 8.85D-04 BMatP= 1.14D-02
 IDIUse=3 WtCom= 9.76D-01 WtEn= 2.38D-02
 Coeff-Com: -0.336D-02 0.635D-02-0.288D-01-0.381D-01 0.208D-02 0.518D-01
 Coeff-Com: -0.763D-01 0.202D+00 0.984D-01-0.257D+00 0.551D+00-0.329D+00
 Coeff-Com:  0.323D-02 0.236D+00-0.315D+00 0.895D+00
 Coeff-En:   0.000D+00 0.000D+00 0.000D+00 0.000D+00 0.000D+00 0.000D+00
 Coeff-En:   0.000D+00 0.000D+00 0.000D+00 0.000D+00 0.000D+00 0.000D+00
 Coeff-En:   0.000D+00 0.000D+00 0.000D+00 0.100D+01
 Coeff:     -0.328D-02 0.620D-02-0.281D-01-0.372D-01 0.203D-02 0.506D-01
 Coeff:     -0.745D-01 0.197D+00 0.961D-01-0.250D+00 0.538D+00-0.321D+00
 Coeff:      0.315D-02 0.230D+00-0.307D+00 0.898D+00
 Gap=     0.053 Goal=   None    Shift=    0.000
 Gap=     0.059 Goal=   None    Shift=    0.000
 RMSDP=5.15D-04 MaxDP=4.23D-02 DE=-2.04D-01 OVMax= 5.77D-02

 Cycle  17  Pass 1  IDiag  1:
 RMSU=  4.22D-04    CP:  9.68D-01  9.87D-01  3.15D-01  3.61D-01  3.74D-01
                    CP:  1.68D-01  1.27D-01  8.54D-01  3.06D-01  4.65D-01
                    CP:  9.59D-01  3.44D-01 -1.07D-01 -1.13D+00  4.72D-01
                    CP:  1.02D+00
 E= -1136.03814928325     Delta-E=       -0.001168731590 Rises=F Damp=F
 DIIS: error= 6.35D-04 at cycle  17 NSaved=  17.
 NSaved=17 IEnMin=17 EnMin= -1136.03814928325     IErMin=17 ErrMin= 6.35D-04
 ErrMax= 6.35D-04  0.00D+00 EMaxC= 1.00D-01 BMatC= 8.57D-05 BMatP= 8.85D-04
 IDIUse=3 WtCom= 9.94D-01 WtEn= 6.35D-03
 Coeff-Com:  0.164D-03 0.225D-02-0.876D-02 0.287D-01 0.613D-02 0.539D-02
 Coeff-Com: -0.636D-02 0.313D-01-0.293D-01-0.814D-01-0.149D-01 0.179D+00
 Coeff-Com: -0.422D-03-0.216D+00 0.143D+00 0.215D-01 0.940D+00
 Coeff-En:   0.000D+00 0.000D+00 0.000D+00 0.000D+00 0.000D+00 0.000D+00
 Coeff-En:   0.000D+00 0.000D+00 0.000D+00 0.000D+00 0.000D+00 0.000D+00
 Coeff-En:   0.000D+00 0.000D+00 0.000D+00 0.000D+00 0.100D+01
 Coeff:      0.163D-03 0.224D-02-0.870D-02 0.285D-01 0.609D-02 0.536D-02
 Coeff:     -0.632D-02 0.311D-01-0.291D-01-0.809D-01-0.148D-01 0.178D+00
 Coeff:     -0.419D-03-0.215D+00 0.142D+00 0.214D-01 0.940D+00
 Gap=     0.046 Goal=   None    Shift=    0.000
 Gap=     0.060 Goal=   None    Shift=    0.000
 RMSDP=2.55D-04 MaxDP=3.18D-02 DE=-1.17D-03 OVMax= 2.46D-02

 Cycle  18  Pass 1  IDiag  1:
 RMSU=  1.34D-04    CP:  9.67D-01  1.01D+00  3.21D-01  3.60D-01  3.75D-01
                    CP:  1.76D-01  1.25D-01  8.32D-01  3.22D-01  3.92D-01
                    CP:  9.77D-01  4.04D-01 -1.21D-01 -1.21D+00  7.41D-01
                    CP:  1.02D+00  1.00D+00
 E= -1136.03828776067     Delta-E=       -0.000138477421 Rises=F Damp=F
 DIIS: error= 1.91D-04 at cycle  18 NSaved=  18.
 NSaved=18 IEnMin=18 EnMin= -1136.03828776067     IErMin=18 ErrMin= 1.91D-04
 ErrMax= 1.91D-04  0.00D+00 EMaxC= 1.00D-01 BMatC= 1.15D-05 BMatP= 8.57D-05
 IDIUse=3 WtCom= 9.98D-01 WtEn= 1.91D-03
 Coeff-Com: -0.144D-02 0.235D-02-0.602D-03 0.541D-02 0.558D-02-0.681D-03
 Coeff-Com:  0.124D-02-0.108D-01-0.129D-01 0.115D-01-0.540D-01 0.134D+00
 Coeff-Com: -0.706D-04-0.123D+00 0.507D-01-0.979D-01 0.207D+00 0.883D+00
 Coeff-En:   0.000D+00 0.000D+00 0.000D+00 0.000D+00 0.000D+00 0.000D+00
 Coeff-En:   0.000D+00 0.000D+00 0.000D+00 0.000D+00 0.000D+00 0.000D+00
 Coeff-En:   0.000D+00 0.000D+00 0.000D+00 0.000D+00 0.000D+00 0.100D+01
 Coeff:     -0.143D-02 0.235D-02-0.601D-03 0.540D-02 0.557D-02-0.680D-03
 Coeff:      0.124D-02-0.108D-01-0.129D-01 0.114D-01-0.539D-01 0.134D+00
 Coeff:     -0.705D-04-0.123D+00 0.506D-01-0.977D-01 0.207D+00 0.883D+00
 Gap=     0.049 Goal=   None    Shift=    0.000
 Gap=     0.059 Goal=   None    Shift=    0.000
 RMSDP=7.13D-05 MaxDP=8.62D-03 DE=-1.38D-04 OVMax= 5.69D-03

 Cycle  19  Pass 1  IDiag  1:
 RMSU=  2.55D-05    CP:  9.67D-01  1.01D+00  3.20D-01  3.60D-01  3.77D-01
                    CP:  1.80D-01  1.24D-01  8.28D-01  3.26D-01  3.84D-01
                    CP:  9.77D-01  4.28D-01 -1.23D-01 -1.25D+00  8.08D-01
                    CP:  1.02D+00  1.02D+00  1.27D+00
 E= -1136.03829559558     Delta-E=       -0.000007834908 Rises=F Damp=F
 DIIS: error= 1.41D-04 at cycle  19 NSaved=  19.
 NSaved=19 IEnMin=19 EnMin= -1136.03829559558     IErMin=19 ErrMin= 1.41D-04
 ErrMax= 1.41D-04  0.00D+00 EMaxC= 1.00D-01 BMatC= 3.87D-06 BMatP= 1.15D-05
 IDIUse=3 WtCom= 9.99D-01 WtEn= 1.41D-03
 Coeff-Com: -0.874D-03 0.113D-02 0.399D-03-0.347D-02 0.363D-02 0.117D-02
 Coeff-Com: -0.268D-02-0.913D-02 0.915D-03 0.129D-01-0.368D-02 0.488D-01
 Coeff-Com: -0.338D-03-0.336D-01-0.163D-01-0.140D-01-0.240D-01 0.182D+00
 Coeff-Com:  0.857D+00
 Coeff-En:   0.000D+00 0.000D+00 0.000D+00 0.000D+00 0.000D+00 0.000D+00
 Coeff-En:   0.000D+00 0.000D+00 0.000D+00 0.000D+00 0.000D+00 0.000D+00
 Coeff-En:   0.000D+00 0.000D+00 0.000D+00 0.000D+00 0.000D+00 0.000D+00
 Coeff-En:   0.100D+01
 Coeff:     -0.873D-03 0.113D-02 0.398D-03-0.346D-02 0.363D-02 0.117D-02
 Coeff:     -0.267D-02-0.912D-02 0.914D-03 0.128D-01-0.367D-02 0.487D-01
 Coeff:     -0.337D-03-0.336D-01-0.163D-01-0.140D-01-0.240D-01 0.182D+00
 Coeff:      0.857D+00
 Gap=     0.048 Goal=   None    Shift=    0.000
 Gap=     0.060 Goal=   None    Shift=    0.000
 RMSDP=2.83D-05 MaxDP=3.03D-03 DE=-7.83D-06 OVMax= 2.47D-03

 Cycle  20  Pass 1  IDiag  1:
 RMSU=  1.15D-05    CP:  9.67D-01  1.01D+00  3.19D-01  3.60D-01  3.79D-01
                    CP:  1.79D-01  1.22D-01  8.29D-01  3.27D-01  3.91D-01
                    CP:  9.73D-01  4.30D-01 -1.23D-01 -1.26D+00  8.02D-01
                    CP:  1.02D+00  1.02D+00  1.29D+00  1.71D+00
 E= -1136.03830041369     Delta-E=       -0.000004818109 Rises=F Damp=F
 DIIS: error= 9.28D-05 at cycle  20 NSaved=  20.
 NSaved=20 IEnMin=20 EnMin= -1136.03830041369     IErMin=20 ErrMin= 9.28D-05
 ErrMax= 9.28D-05  0.00D+00 EMaxC= 1.00D-01 BMatC= 1.46D-06 BMatP= 3.87D-06
 IDIUse=1 WtCom= 1.00D+00 WtEn= 0.00D+00
 Coeff-Com:  0.123D-03-0.152D-04-0.825D-03-0.134D-02 0.154D-02 0.186D-02
 Coeff-Com: -0.425D-02 0.115D-02 0.286D-02-0.515D-02 0.126D-01 0.101D-01
 Coeff-Com: -0.907D-03-0.658D-02-0.126D-01 0.218D-01 0.137D-01-0.166D+00
 Coeff-Com: -0.365D+00 0.150D+01
 Coeff:      0.123D-03-0.152D-04-0.825D-03-0.134D-02 0.154D-02 0.186D-02
 Coeff:     -0.425D-02 0.115D-02 0.286D-02-0.515D-02 0.126D-01 0.101D-01
 Coeff:     -0.907D-03-0.658D-02-0.126D-01 0.218D-01 0.137D-01-0.166D+00
 Coeff:     -0.365D+00 0.150D+01
 Gap=     0.048 Goal=   None    Shift=    0.000
 Gap=     0.061 Goal=   None    Shift=    0.000
 RMSDP=3.15D-05 MaxDP=3.78D-03 DE=-4.82D-06 OVMax= 2.51D-03

 Cycle  21  Pass 1  IDiag  1:
 Restarting incremental Fock formation.
 E= -1136.03830305564     Delta-E=       -0.000002641959 Rises=F Damp=F
 DIIS: error= 5.10D-05 at cycle  21 NSaved=  20.
 NSaved=20 IEnMin=20 EnMin= -1136.03830305564     IErMin=20 ErrMin= 5.10D-05
 ErrMax= 5.10D-05  0.00D+00 EMaxC= 1.00D-01 BMatC= 5.03D-07 BMatP= 1.46D-06
 IDIUse=1 WtCom= 1.00D+00 WtEn= 0.00D+00
 Coeff-Com:  0.697D-04-0.932D-04-0.338D-03 0.801D-03-0.126D-05-0.113D-02
 Coeff-Com:  0.804D-02 0.809D-03-0.533D-02 0.145D-02-0.200D-01-0.172D-02
 Coeff-Com:  0.150D-01 0.202D-02 0.783D-02-0.539D-02-0.459D-01-0.310D+00
 Coeff-Com: -0.134D+00 0.149D+01
 Coeff:      0.697D-04-0.932D-04-0.338D-03 0.801D-03-0.126D-05-0.113D-02
 Coeff:      0.804D-02 0.809D-03-0.533D-02 0.145D-02-0.200D-01-0.172D-02
 Coeff:      0.150D-01 0.202D-02 0.783D-02-0.539D-02-0.459D-01-0.310D+00
 Coeff:     -0.134D+00 0.149D+01
 Gap=     0.048 Goal=   None    Shift=    0.000
 Gap=     0.061 Goal=   None    Shift=    0.000
 RMSDP=1.93D-05 MaxDP=2.86D-03 DE=-2.64D-06 OVMax= 1.75D-03

 Cycle  22  Pass 1  IDiag  1:
 RMSU=  1.93D-05    CP:  1.00D+00
 E= -1136.03830356532     Delta-E=       -0.000000509679 Rises=F Damp=F
 DIIS: error= 4.19D-05 at cycle  22 NSaved=  20.
 NSaved=20 IEnMin=20 EnMin= -1136.03830356532     IErMin=20 ErrMin= 4.19D-05
 ErrMax= 4.19D-05  0.00D+00 EMaxC= 1.00D-01 BMatC= 2.65D-07 BMatP= 5.03D-07
 IDIUse=1 WtCom= 1.00D+00 WtEn= 0.00D+00
 Coeff-Com:  0.525D-04-0.102D-03-0.179D-03 0.576D-03-0.270D-03 0.119D-03
 Coeff-Com:  0.551D-02-0.356D-02 0.625D-03-0.143D-01-0.138D-02 0.110D-01
 Coeff-Com:  0.195D-02 0.362D-02-0.732D-02-0.509D-02-0.546D-01-0.287D+00
 Coeff-Com:  0.496D+00 0.855D+00
 Coeff:      0.525D-04-0.102D-03-0.179D-03 0.576D-03-0.270D-03 0.119D-03
 Coeff:      0.551D-02-0.356D-02 0.625D-03-0.143D-01-0.138D-02 0.110D-01
 Coeff:      0.195D-02 0.362D-02-0.732D-02-0.509D-02-0.546D-01-0.287D+00
 Coeff:      0.496D+00 0.855D+00
 Gap=     0.048 Goal=   None    Shift=    0.000
 Gap=     0.061 Goal=   None    Shift=    0.000
 RMSDP=5.98D-06 MaxDP=1.00D-03 DE=-5.10D-07 OVMax= 3.97D-04

 Cycle  23  Pass 1  IDiag  1:
 RMSU=  4.56D-06    CP:  1.00D+00  1.20D+00
 E= -1136.03830371327     Delta-E=       -0.000000147950 Rises=F Damp=F
 DIIS: error= 4.13D-05 at cycle  23 NSaved=  20.
 NSaved=20 IEnMin=20 EnMin= -1136.03830371327     IErMin=20 ErrMin= 4.13D-05
 ErrMax= 4.13D-05  0.00D+00 EMaxC= 1.00D-01 BMatC= 1.69D-07 BMatP= 2.65D-07
 IDIUse=1 WtCom= 1.00D+00 WtEn= 0.00D+00
 Coeff-Com:  0.599D-04 0.621D-05-0.916D-04-0.376D-04 0.197D-03 0.175D-02
 Coeff-Com: -0.196D-02-0.201D-02 0.237D-02-0.381D-03-0.241D-02 0.270D-02
 Coeff-Com:  0.145D-02 0.112D-01-0.914D-02-0.102D+00 0.116D+00-0.460D-01
 Coeff-Com: -0.576D+00 0.160D+01
 Coeff:      0.599D-04 0.621D-05-0.916D-04-0.376D-04 0.197D-03 0.175D-02
 Coeff:     -0.196D-02-0.201D-02 0.237D-02-0.381D-03-0.241D-02 0.270D-02
 Coeff:      0.145D-02 0.112D-01-0.914D-02-0.102D+00 0.116D+00-0.460D-01
 Coeff:     -0.576D+00 0.160D+01
 Gap=     0.049 Goal=   None    Shift=    0.000
 Gap=     0.061 Goal=   None    Shift=    0.000
 RMSDP=5.81D-06 MaxDP=9.23D-04 DE=-1.48D-07 OVMax= 3.00D-04

 Cycle  24  Pass 1  IDiag  1:
 RMSU=  3.83D-06    CP:  1.00D+00  1.33D+00  1.79D+00
 E= -1136.03830379549     Delta-E=       -0.000000082216 Rises=F Damp=F
 DIIS: error= 3.80D-05 at cycle  24 NSaved=  20.
 NSaved=20 IEnMin=20 EnMin= -1136.03830379549     IErMin=20 ErrMin= 3.80D-05
 ErrMax= 3.80D-05  0.00D+00 EMaxC= 1.00D-01 BMatC= 1.25D-07 BMatP= 1.69D-07
 IDIUse=1 WtCom= 1.00D+00 WtEn= 0.00D+00
 Coeff-Com: -0.109D-03 0.121D-03-0.509D-03 0.304D-03 0.127D-02-0.522D-04
 Coeff-Com: -0.246D-02 0.183D-03 0.833D-03-0.510D-03 0.159D-02-0.225D-02
 Coeff-Com:  0.228D-01-0.285D-01-0.141D+00 0.199D+00 0.410D+00-0.123D+01
 Coeff-Com: -0.404D+00 0.217D+01
 Coeff:     -0.109D-03 0.121D-03-0.509D-03 0.304D-03 0.127D-02-0.522D-04
 Coeff:     -0.246D-02 0.183D-03 0.833D-03-0.510D-03 0.159D-02-0.225D-02
 Coeff:      0.228D-01-0.285D-01-0.141D+00 0.199D+00 0.410D+00-0.123D+01
 Coeff:     -0.404D+00 0.217D+01
 Gap=     0.048 Goal=   None    Shift=    0.000
 Gap=     0.062 Goal=   None    Shift=    0.000
 RMSDP=8.31D-06 MaxDP=1.40D-03 DE=-8.22D-08 OVMax= 4.60D-04

 Cycle  25  Pass 1  IDiag  1:
 RMSU=  5.75D-06    CP:  1.00D+00  1.32D+00  2.87D+00  1.90D+00
 E= -1136.03830395723     Delta-E=       -0.000000161739 Rises=F Damp=F
 DIIS: error= 2.02D-05 at cycle  25 NSaved=  20.
 NSaved=20 IEnMin=20 EnMin= -1136.03830395723     IErMin=20 ErrMin= 2.02D-05
 ErrMax= 2.02D-05  0.00D+00 EMaxC= 1.00D-01 BMatC= 4.15D-08 BMatP= 1.25D-07
 IDIUse=1 WtCom= 1.00D+00 WtEn= 0.00D+00
 Coeff-Com: -0.363D-05 0.538D-04-0.239D-03-0.106D-03 0.336D-04-0.340D-03
 Coeff-Com:  0.434D-02 0.472D-03-0.387D-02-0.284D-03-0.538D-03 0.295D-03
 Coeff-Com:  0.417D-03-0.241D-01 0.271D-01 0.935D-01 0.233D+00-0.125D+00
 Coeff-Com: -0.980D+00 0.178D+01
 Coeff:     -0.363D-05 0.538D-04-0.239D-03-0.106D-03 0.336D-04-0.340D-03
 Coeff:      0.434D-02 0.472D-03-0.387D-02-0.284D-03-0.538D-03 0.295D-03
 Coeff:      0.417D-03-0.241D-01 0.271D-01 0.935D-01 0.233D+00-0.125D+00
 Coeff:     -0.980D+00 0.178D+01
 Gap=     0.049 Goal=   None    Shift=    0.000
 Gap=     0.062 Goal=   None    Shift=    0.000
 RMSDP=5.68D-06 MaxDP=9.86D-04 DE=-1.62D-07 OVMax= 3.35D-04

 Cycle  26  Pass 1  IDiag  1:
 RMSU=  2.35D-06    CP:  1.00D+00  1.18D+00  2.91D+00  2.22D+00  1.74D+00
 E= -1136.03830402226     Delta-E=       -0.000000065033 Rises=F Damp=F
 DIIS: error= 9.55D-06 at cycle  26 NSaved=  20.
 NSaved=20 IEnMin=20 EnMin= -1136.03830402226     IErMin=20 ErrMin= 9.55D-06
 ErrMax= 9.55D-06  0.00D+00 EMaxC= 1.00D-01 BMatC= 9.29D-09 BMatP= 4.15D-08
 IDIUse=1 WtCom= 1.00D+00 WtEn= 0.00D+00
 Coeff-Com:  0.682D-05 0.147D-04-0.424D-03-0.299D-03-0.957D-04 0.257D-02
 Coeff-Com: -0.292D-05-0.212D-02 0.220D-03 0.292D-03 0.143D-02-0.225D-03
 Coeff-Com: -0.356D-02-0.938D-02-0.912D-01 0.240D-01 0.385D+00-0.447D+00
 Coeff-Com: -0.373D+00 0.151D+01
 Coeff:      0.682D-05 0.147D-04-0.424D-03-0.299D-03-0.957D-04 0.257D-02
 Coeff:     -0.292D-05-0.212D-02 0.220D-03 0.292D-03 0.143D-02-0.225D-03
 Coeff:     -0.356D-02-0.938D-02-0.912D-01 0.240D-01 0.385D+00-0.447D+00
 Coeff:     -0.373D+00 0.151D+01
 Gap=     0.049 Goal=   None    Shift=    0.000
 Gap=     0.062 Goal=   None    Shift=    0.000
 RMSDP=3.64D-06 MaxDP=5.90D-04 DE=-6.50D-08 OVMax= 1.85D-04

 Cycle  27  Pass 1  IDiag  1:
 RMSU=  9.40D-07    CP:  1.00D+00  1.21D+00  2.78D+00  2.02D+00  2.19D+00
                    CP:  1.91D+00
 E= -1136.03830404217     Delta-E=       -0.000000019912 Rises=F Damp=F
 DIIS: error= 2.43D-06 at cycle  27 NSaved=  20.
 NSaved=20 IEnMin=20 EnMin= -1136.03830404217     IErMin=20 ErrMin= 2.43D-06
 ErrMax= 2.43D-06  0.00D+00 EMaxC= 1.00D-01 BMatC= 6.40D-10 BMatP= 9.29D-09
 IDIUse=1 WtCom= 1.00D+00 WtEn= 0.00D+00
 Coeff-Com: -0.208D-05-0.409D-04-0.174D-03-0.112D-04 0.977D-04-0.370D-04
 Coeff-Com: -0.584D-04 0.166D-03 0.219D-03 0.268D-03 0.161D-04 0.994D-03
 Coeff-Com: -0.134D-01-0.158D-01 0.531D-02 0.591D-01-0.362D-01-0.179D+00
 Coeff-Com:  0.192D+00 0.987D+00
 Coeff:     -0.208D-05-0.409D-04-0.174D-03-0.112D-04 0.977D-04-0.370D-04
 Coeff:     -0.584D-04 0.166D-03 0.219D-03 0.268D-03 0.161D-04 0.994D-03
 Coeff:     -0.134D-01-0.158D-01 0.531D-02 0.591D-01-0.362D-01-0.179D+00
 Coeff:      0.192D+00 0.987D+00
 Gap=     0.049 Goal=   None    Shift=    0.000
 Gap=     0.062 Goal=   None    Shift=    0.000
 RMSDP=1.06D-06 MaxDP=1.76D-04 DE=-1.99D-08 OVMax= 5.98D-05

 Cycle  28  Pass 1  IDiag  1:
 RMSU=  2.61D-07    CP:  1.00D+00  1.23D+00  2.76D+00  1.99D+00  2.29D+00
                    CP:  2.17D+00  1.29D+00
 E= -1136.03830404363     Delta-E=       -0.000000001461 Rises=F Damp=F
 DIIS: error= 5.48D-07 at cycle  28 NSaved=  20.
 NSaved=20 IEnMin=20 EnMin= -1136.03830404363     IErMin=20 ErrMin= 5.48D-07
 ErrMax= 5.48D-07  0.00D+00 EMaxC= 1.00D-01 BMatC= 7.20D-11 BMatP= 6.40D-10
 IDIUse=1 WtCom= 1.00D+00 WtEn= 0.00D+00
 Coeff-Com:  0.222D-05-0.967D-05-0.586D-04 0.426D-04 0.149D-04-0.233D-04
 Coeff-Com:  0.311D-04 0.183D-04-0.226D-03 0.678D-03 0.104D-02-0.267D-02
 Coeff-Com:  0.549D-02 0.489D-02-0.246D-01 0.809D-02 0.337D-01-0.867D-01
 Coeff-Com: -0.660D-02 0.107D+01
 Coeff:      0.222D-05-0.967D-05-0.586D-04 0.426D-04 0.149D-04-0.233D-04
 Coeff:      0.311D-04 0.183D-04-0.226D-03 0.678D-03 0.104D-02-0.267D-02
 Coeff:      0.549D-02 0.489D-02-0.246D-01 0.809D-02 0.337D-01-0.867D-01
 Coeff:     -0.660D-02 0.107D+01
 Gap=     0.049 Goal=   None    Shift=    0.000
 Gap=     0.062 Goal=   None    Shift=    0.000
 RMSDP=2.76D-07 MaxDP=2.68D-05 DE=-1.46D-09 OVMax= 2.63D-05

 Cycle  29  Pass 1  IDiag  1:
 RMSU=  1.61D-07    CP:  1.00D+00  1.23D+00  2.76D+00  1.98D+00  2.30D+00
                    CP:  2.23D+00  1.39D+00  1.46D+00
 E= -1136.03830404385     Delta-E=       -0.000000000217 Rises=F Damp=F
 DIIS: error= 2.55D-07 at cycle  29 NSaved=  20.
 NSaved=20 IEnMin=20 EnMin= -1136.03830404385     IErMin=20 ErrMin= 2.55D-07
 ErrMax= 2.55D-07  0.00D+00 EMaxC= 1.00D-01 BMatC= 1.49D-11 BMatP= 7.20D-11
 IDIUse=1 WtCom= 1.00D+00 WtEn= 0.00D+00
 Coeff-Com: -0.135D-05 0.611D-05-0.355D-05-0.689D-05-0.765D-05 0.123D-04
 Coeff-Com: -0.404D-05-0.234D-03 0.328D-04 0.455D-03-0.926D-03 0.834D-03
 Coeff-Com:  0.344D-02 0.377D-02-0.123D-01 0.176D-01-0.640D-02-0.714D-01
 Coeff-Com: -0.235D+00 0.130D+01
 Coeff:     -0.135D-05 0.611D-05-0.355D-05-0.689D-05-0.765D-05 0.123D-04
 Coeff:     -0.404D-05-0.234D-03 0.328D-04 0.455D-03-0.926D-03 0.834D-03
 Coeff:      0.344D-02 0.377D-02-0.123D-01 0.176D-01-0.640D-02-0.714D-01
 Coeff:     -0.235D+00 0.130D+01
 Gap=     0.049 Goal=   None    Shift=    0.000
 Gap=     0.062 Goal=   None    Shift=    0.000
 RMSDP=1.78D-07 MaxDP=1.47D-05 DE=-2.17D-10 OVMax= 1.94D-05

 Cycle  30  Pass 1  IDiag  1:
 RMSU=  3.01D-08    CP:  1.00D+00  1.23D+00  2.76D+00  1.97D+00  2.30D+00
                    CP:  2.23D+00  1.40D+00  1.86D+00  1.75D+00
 E= -1136.03830404393     Delta-E=       -0.000000000078 Rises=F Damp=F
 DIIS: error= 1.29D-07 at cycle  30 NSaved=  20.
 NSaved=20 IEnMin=20 EnMin= -1136.03830404393     IErMin=20 ErrMin= 1.29D-07
 ErrMax= 1.29D-07  0.00D+00 EMaxC= 1.00D-01 BMatC= 4.26D-12 BMatP= 1.49D-11
 IDIUse=1 WtCom= 1.00D+00 WtEn= 0.00D+00
 Coeff-Com:  0.542D-06-0.813D-07-0.693D-06-0.161D-05 0.756D-06-0.678D-05
 Coeff-Com:  0.864D-04-0.132D-03-0.473D-03 0.557D-03-0.742D-03-0.424D-02
 Coeff-Com:  0.792D-02-0.224D-02-0.118D-01 0.255D-01 0.115D-01-0.299D+00
 Coeff-Com:  0.756D-01 0.120D+01
 Coeff:      0.542D-06-0.813D-07-0.693D-06-0.161D-05 0.756D-06-0.678D-05
 Coeff:      0.864D-04-0.132D-03-0.473D-03 0.557D-03-0.742D-03-0.424D-02
 Coeff:      0.792D-02-0.224D-02-0.118D-01 0.255D-01 0.115D-01-0.299D+00
 Coeff:      0.756D-01 0.120D+01
 Gap=     0.049 Goal=   None    Shift=    0.000
 Gap=     0.062 Goal=   None    Shift=    0.000
 RMSDP=9.81D-08 MaxDP=9.64D-06 DE=-7.82D-11 OVMax= 1.23D-05

 Cycle  31  Pass 1  IDiag  1:
 RMSU=  2.25D-08    CP:  1.00D+00  1.24D+00  2.77D+00  1.97D+00  2.30D+00
                    CP:  2.24D+00  1.43D+00  2.06D+00  2.18D+00  1.32D+00
 E= -1136.03830404395     Delta-E=       -0.000000000017 Rises=F Damp=F
 DIIS: error= 3.81D-08 at cycle  31 NSaved=  20.
 NSaved=20 IEnMin=20 EnMin= -1136.03830404395     IErMin=20 ErrMin= 3.81D-08
 ErrMax= 3.81D-08  0.00D+00 EMaxC= 1.00D-01 BMatC= 3.02D-13 BMatP= 4.26D-12
 IDIUse=1 WtCom= 1.00D+00 WtEn= 0.00D+00
 Coeff-Com: -0.278D-06-0.318D-06 0.452D-06 0.136D-06-0.729D-05 0.221D-04
 Coeff-Com:  0.296D-04-0.921D-05-0.404D-04 0.335D-03-0.786D-03-0.905D-03
 Coeff-Com:  0.146D-02-0.128D-03 0.664D-03-0.455D-03-0.352D-02-0.907D-01
 Coeff-Com: -0.142D-01 0.111D+01
 Coeff:     -0.278D-06-0.318D-06 0.452D-06 0.136D-06-0.729D-05 0.221D-04
 Coeff:      0.296D-04-0.921D-05-0.404D-04 0.335D-03-0.786D-03-0.905D-03
 Coeff:      0.146D-02-0.128D-03 0.664D-03-0.455D-03-0.352D-02-0.907D-01
 Coeff:     -0.142D-01 0.111D+01
 Gap=     0.049 Goal=   None    Shift=    0.000
 Gap=     0.062 Goal=   None    Shift=    0.000
 RMSDP=2.95D-08 MaxDP=3.15D-06 DE=-1.73D-11 OVMax= 3.80D-06

 Cycle  32  Pass 1  IDiag  1:
 RMSU=  3.13D-09    CP:  1.00D+00  1.24D+00  2.77D+00  1.97D+00  2.30D+00
                    CP:  2.24D+00  1.43D+00  2.10D+00  2.29D+00  1.39D+00
                    CP:  1.61D+00
 E= -1136.03830404395     Delta-E=       -0.000000000001 Rises=F Damp=F
 DIIS: error= 1.21D-08 at cycle  32 NSaved=  20.
 NSaved=20 IEnMin=20 EnMin= -1136.03830404395     IErMin=20 ErrMin= 1.21D-08
 ErrMax= 1.21D-08  0.00D+00 EMaxC= 1.00D-01 BMatC= 2.45D-14 BMatP= 3.02D-13
 IDIUse=1 WtCom= 1.00D+00 WtEn= 0.00D+00
 Coeff-Com:  0.445D-07-0.237D-07 0.469D-07-0.992D-06 0.111D-05 0.834D-05
 Coeff-Com:  0.405D-04-0.779D-04 0.992D-04-0.242D-03-0.460D-04 0.564D-03
 Coeff-Com: -0.515D-04-0.412D-03 0.251D-02 0.933D-02-0.751D-02-0.574D-01
 Coeff-Com:  0.238D-01 0.103D+01
 Coeff:      0.445D-07-0.237D-07 0.469D-07-0.992D-06 0.111D-05 0.834D-05
 Coeff:      0.405D-04-0.779D-04 0.992D-04-0.242D-03-0.460D-04 0.564D-03
 Coeff:     -0.515D-04-0.412D-03 0.251D-02 0.933D-02-0.751D-02-0.574D-01
 Coeff:      0.238D-01 0.103D+01
 Gap=     0.049 Goal=   None    Shift=    0.000
 Gap=     0.062 Goal=   None    Shift=    0.000
 RMSDP=8.02D-09 MaxDP=7.04D-07 DE=-1.36D-12 OVMax= 6.25D-07

 SCF Done:  E(UB3LYP) =  -1136.03830404     A.U. after   32 cycles
            NFock= 32  Conv=0.80D-08     -V/T= 2.0028
 <Sx>= 0.0000 <Sy>= 0.0000 <Sz>= 0.5000 <S**2>= 2.7651 S= 1.2364
 <L.S>= 0.000000000000E+00
 KE= 1.132822983917D+03 PE=-2.840315517033D+03 EE= 5.154257537491D+02
 Annihilation of the first spin contaminant:
 S**2 before annihilation     2.7651,   after     3.7390
 Leave Link  502 at Thu Nov 23 12:43:10 2023, MaxMem=   104857600 cpu:             762.9 elap:             709.0
 (Enter /home/sekinelabo/g16/l601.exe)
 Copying SCF densities to generalized density rwf, IOpCl= 1 IROHF=0.

 **********************************************************************

            Population analysis using the SCF Density.

 **********************************************************************

 Orbital symmetries:
 Alpha Orbitals:
       Occupied  (A) (A) (A) (A) (A) (A) (A) (A) (A) (A) (A) (A)
                 (A) (A) (A) (A) (A) (A) (A) (A) (A) (A) (A) (A)
                 (A) (A) (A) (A) (A) (A) (A) (A) (A) (A) (A) (A)
                 (A) (A) (A)
       Virtual   (A) (A) (A) (A) (A) (A) (A) (A) (A) (A) (A) (A)
                 (A) (A) (A) (A) (A) (A) (A) (A) (A) (A) (A) (A)
                 (A) (A) (A) (A) (A) (A) (A) (A) (A) (A) (A) (A)
                 (A) (A) (A) (A) (A) (A) (A) (A) (A) (A) (A) (A)
                 (A) (A) (A) (A) (A) (A) (A) (A) (A) (A) (A) (A)
                 (A) (A) (A) (A) (A) (A) (A) (A) (A) (A) (A) (A)
                 (A) (A) (A) (A) (A) (A) (A) (A) (A) (A) (A) (A)
                 (A) (A) (A) (A) (A) (A) (A) (A) (A) (A) (A) (A)
                 (A) (A) (A) (A) (A) (A) (A) (A) (A) (A) (A) (A)
                 (A) (A) (A) (A) (A) (A) (A) (A) (A) (A) (A) (A)
                 (A) (A) (A) (A) (A) (A) (A) (A) (A) (A) (A) (A)
                 (A) (A) (A) (A) (A) (A) (A) (A) (A) (A) (A) (A)
                 (A) (A) (A) (A) (A) (A) (A) (A) (A) (A) (A) (A)
                 (A) (A) (A) (A) (A) (A) (A) (A) (A) (A) (A) (A)
                 (A) (A) (A)
 Beta  Orbitals:
       Occupied  (A) (A) (A) (A) (A) (A) (A) (A) (A) (A) (A) (A)
                 (A) (A) (A) (A) (A) (A) (A) (A) (A) (A) (A) (A)
                 (A) (A) (A) (A) (A) (A) (A) (A) (A) (A) (A) (A)
                 (A) (A)
       Virtual   (A) (A) (A) (A) (A) (A) (A) (A) (A) (A) (A) (A)
                 (A) (A) (A) (A) (A) (A) (A) (A) (A) (A) (A) (A)
                 (A) (A) (A) (A) (A) (A) (A) (A) (A) (A) (A) (A)
                 (A) (A) (A) (A) (A) (A) (A) (A) (A) (A) (A) (A)
                 (A) (A) (A) (A) (A) (A) (A) (A) (A) (A) (A) (A)
                 (A) (A) (A) (A) (A) (A) (A) (A) (A) (A) (A) (A)
                 (A) (A) (A) (A) (A) (A) (A) (A) (A) (A) (A) (A)
                 (A) (A) (A) (A) (A) (A) (A) (A) (A) (A) (A) (A)
                 (A) (A) (A) (A) (A) (A) (A) (A) (A) (A) (A) (A)
                 (A) (A) (A) (A) (A) (A) (A) (A) (A) (A) (A) (A)
                 (A) (A) (A) (A) (A) (A) (A) (A) (A) (A) (A) (A)
                 (A) (A) (A) (A) (A) (A) (A) (A) (A) (A) (A) (A)
                 (A) (A) (A) (A) (A) (A) (A) (A) (A) (A) (A) (A)
                 (A) (A) (A) (A) (A) (A) (A) (A) (A) (A) (A) (A)
                 (A) (A) (A) (A)
 The electronic state is 2-A.
 Alpha  occ. eigenvalues --  -38.45937 -38.45774 -38.45774 -38.45773 -38.45589
 Alpha  occ. eigenvalues --  -38.44272 -38.43956  -2.21573  -2.21558  -2.21558
 Alpha  occ. eigenvalues --   -2.21558  -2.21213  -2.20055  -2.19763  -1.15293
 Alpha  occ. eigenvalues --   -1.15293  -1.15273  -1.15171  -1.15171  -1.15171
 Alpha  occ. eigenvalues --   -1.15171  -1.15171  -1.15171  -1.15170  -1.15170
 Alpha  occ. eigenvalues --   -1.15170  -1.14937  -1.14937  -1.14937  -1.13812
 Alpha  occ. eigenvalues --   -1.13714  -1.13714  -1.13423  -1.13421  -1.13355
 Alpha  occ. eigenvalues --   -0.13209  -0.12801  -0.12801  -0.12801
 Alpha virt. eigenvalues --   -0.07940  -0.06222  -0.04584  -0.02548  -0.02520
 Alpha virt. eigenvalues --   -0.02100  -0.02100  -0.02100  -0.02100  -0.02100
 Alpha virt. eigenvalues --   -0.02100  -0.02100  -0.02100  -0.02100  -0.01070
 Alpha virt. eigenvalues --   -0.00707  -0.00613  -0.00087  -0.00087  -0.00087
 Alpha virt. eigenvalues --    0.00118   0.00118   0.00118   0.00130   0.00845
 Alpha virt. eigenvalues --    0.00860   0.01002   0.01026   0.01153   0.01331
 Alpha virt. eigenvalues --    0.01332   0.01332   0.01332   0.01332   0.01332
 Alpha virt. eigenvalues --    0.01332   0.01332   0.01332   0.01725   0.01776
 Alpha virt. eigenvalues --    0.01848   0.02028   0.02110   0.02245   0.02245
 Alpha virt. eigenvalues --    0.02245   0.02984   0.03273   0.03363   0.03365
 Alpha virt. eigenvalues --    0.03950   0.05297   0.07463   0.07469   0.07469
 Alpha virt. eigenvalues --    0.07469   0.07469   0.07469   0.07469   0.07469
 Alpha virt. eigenvalues --    0.07469   0.07469   0.07521   0.07544   0.08015
 Alpha virt. eigenvalues --    0.08016   0.08016   0.08063   0.08553   0.08633
 Alpha virt. eigenvalues --    0.08824   0.08824   0.08824   0.09375   0.09455
 Alpha virt. eigenvalues --    0.10182   0.10405   0.12431   0.12748   0.16626
 Alpha virt. eigenvalues --    0.29495   0.29824   0.31874   0.32759   0.32785
 Alpha virt. eigenvalues --    0.33225   0.33225   0.33225   0.33225   0.33225
 Alpha virt. eigenvalues --    0.33225   0.33225   0.33225   0.33225   0.33225
 Alpha virt. eigenvalues --    0.33225   0.33225   0.33225   0.33225   0.33225
 Alpha virt. eigenvalues --    0.34907   0.34917   0.35322   0.35322   0.35322
 Alpha virt. eigenvalues --    0.35322   0.35322   0.35683   0.35797   0.38485
 Alpha virt. eigenvalues --    0.38582   0.40106   0.41938   0.41938   0.41938
 Alpha virt. eigenvalues --    0.41939   0.41939   0.41939   0.41939   0.41939
 Alpha virt. eigenvalues --    0.41939   0.42738   0.42790   0.42911   0.43432
 Alpha virt. eigenvalues --    0.43432   0.43432   0.43432   0.44017   0.44830
 Alpha virt. eigenvalues --    0.44911   0.45898   0.49757   0.50123   0.51539
 Alpha virt. eigenvalues --    0.73912   1.98665   1.98665   1.98666   1.99534
 Alpha virt. eigenvalues --    2.00853   2.06065   2.13707   4.41730   4.42809
 Alpha virt. eigenvalues --    4.42809   4.42809   4.42809   4.42809   4.42809
 Alpha virt. eigenvalues --    4.42809   4.42809   4.42809   4.42957   4.43016
 Alpha virt. eigenvalues --    4.43131   4.43131   4.43131   4.43428   4.43698
 Alpha virt. eigenvalues --    4.45417   4.46504   4.46957   4.67786  96.17682
 Alpha virt. eigenvalues --   96.17682  96.17683  96.17951  96.19681  96.25838
 Alpha virt. eigenvalues --   96.36554
  Beta  occ. eigenvalues --  -38.46100 -38.45774 -38.45588 -38.45588 -38.45588
  Beta  occ. eigenvalues --  -38.44319 -38.43946  -2.21877  -2.21559  -2.21212
  Beta  occ. eigenvalues --   -2.21212  -2.21212  -2.20142  -2.19739  -1.15498
  Beta  occ. eigenvalues --   -1.15498  -1.15478  -1.15171  -1.15171  -1.15171
  Beta  occ. eigenvalues --   -1.14937  -1.14937  -1.14937  -1.14937  -1.14937
  Beta  occ. eigenvalues --   -1.14937  -1.14936  -1.14936  -1.14936  -1.13865
  Beta  occ. eigenvalues --   -1.13773  -1.13773  -1.13402  -1.13401  -1.13379
  Beta  occ. eigenvalues --   -0.14165  -0.12802  -0.12404
  Beta virt. eigenvalues --   -0.06221  -0.06221  -0.06221  -0.05310  -0.02887
  Beta virt. eigenvalues --   -0.02882  -0.02101  -0.02101  -0.02101  -0.01944
  Beta virt. eigenvalues --   -0.01577  -0.01387  -0.00087  -0.00087  -0.00087
  Beta virt. eigenvalues --   -0.00087  -0.00087  -0.00087  -0.00086  -0.00086
  Beta virt. eigenvalues --   -0.00086  -0.00065   0.00117   0.00826   0.00846
  Beta virt. eigenvalues --    0.00846   0.00846   0.00874   0.00997   0.01027
  Beta virt. eigenvalues --    0.01331   0.01331   0.01331   0.01536   0.01563
  Beta virt. eigenvalues --    0.01682   0.01766   0.01987   0.02246   0.02246
  Beta virt. eigenvalues --    0.02246   0.02246   0.02246   0.02246   0.02246
  Beta virt. eigenvalues --    0.02246   0.02246   0.02813   0.03229   0.03293
  Beta virt. eigenvalues --    0.03325   0.03716   0.05076   0.07181   0.07273
  Beta virt. eigenvalues --    0.07331   0.07468   0.07468   0.07468   0.07691
  Beta virt. eigenvalues --    0.07884   0.07934   0.08015   0.08824   0.08824
  Beta virt. eigenvalues --    0.08824   0.08824   0.08824   0.08824   0.08825
  Beta virt. eigenvalues --    0.08825   0.08825   0.08913   0.09455   0.09456
  Beta virt. eigenvalues --    0.09456   0.10224   0.10248   0.12150   0.12390
  Beta virt. eigenvalues --    0.16422   0.29178   0.29386   0.31375   0.32568
  Beta virt. eigenvalues --    0.32598   0.33224   0.33224   0.33224   0.33224
  Beta virt. eigenvalues --    0.33224   0.33249   0.33263   0.34187   0.34305
  Beta virt. eigenvalues --    0.35322   0.35322   0.35322   0.35322   0.35322
  Beta virt. eigenvalues --    0.35323   0.35323   0.35323   0.35323   0.35323
  Beta virt. eigenvalues --    0.35323   0.35323   0.35323   0.35323   0.35323
  Beta virt. eigenvalues --    0.38329   0.38537   0.39346   0.41938   0.41938
  Beta virt. eigenvalues --    0.41938   0.42132   0.42166   0.42488   0.43290
  Beta virt. eigenvalues --    0.43432   0.43432   0.43432   0.43433   0.43433
  Beta virt. eigenvalues --    0.43433   0.43433   0.43433   0.43433   0.43904
  Beta virt. eigenvalues --    0.44827   0.44969   0.45625   0.49715   0.50079
  Beta virt. eigenvalues --    0.51413   0.73847   1.98665   1.99534   1.99534
  Beta virt. eigenvalues --    1.99535   2.00366   2.05755   2.13651   4.41641
  Beta virt. eigenvalues --    4.42725   4.42786   4.42808   4.42808   4.42808
  Beta virt. eigenvalues --    4.43131   4.43131   4.43131   4.43131   4.43131
  Beta virt. eigenvalues --    4.43131   4.43132   4.43132   4.43132   4.43372
  Beta virt. eigenvalues --    4.43662   4.45243   4.46503   4.46939   4.67751
  Beta virt. eigenvalues --   96.17682  96.17951  96.17951  96.17952  96.19531
  Beta virt. eigenvalues --   96.25733  96.36527
          Condensed to atoms (all electrons):
               1          2          3          4          5          6
     1  Na  11.000000   0.000000   0.000000   0.000000   0.000000   0.000000
     2  Na   0.000000  10.924878   0.038775  -0.050370   0.000000   0.000000
     3  Na   0.000000   0.038775  11.139926   0.236243   0.000000   0.000000
     4  Na   0.000000  -0.050370   0.236243  10.485901   0.000000   0.000000
     5  Na   0.000000   0.000000   0.000000   0.000000  11.000000   0.000000
     6  Na   0.000000   0.000000   0.000000   0.000000   0.000000  11.000000
     7  Na   0.000000   0.000000   0.000000   0.000000   0.000000   0.000000
               7
     1  Na   0.000000
     2  Na   0.000000
     3  Na   0.000000
     4  Na   0.000000
     5  Na   0.000000
     6  Na   0.000000
     7  Na  11.000000
          Atomic-Atomic Spin Densities.
               1          2          3          4          5          6
     1  Na   1.000000   0.000000   0.000000   0.000000   0.000000   0.000000
     2  Na   0.000000  -0.849210  -0.002270   0.021663   0.000000   0.000000
     3  Na   0.000000  -0.002270   0.128657  -0.082754   0.000000   0.000000
     4  Na   0.000000   0.021663  -0.082754  -0.152724   0.000000   0.000000
     5  Na   0.000000   0.000000   0.000000   0.000000   1.000000   0.000000
     6  Na   0.000000   0.000000   0.000000   0.000000   0.000000   1.000000
     7  Na   0.000000   0.000000   0.000000   0.000000   0.000000   0.000000
               7
     1  Na   0.000000
     2  Na   0.000000
     3  Na   0.000000
     4  Na   0.000000
     5  Na   0.000000
     6  Na   0.000000
     7  Na  -1.000000
 Mulliken charges and spin densities:
               1          2
     1  Na  -0.000000   1.000000
     2  Na   0.086717  -0.829817
     3  Na  -0.414943   0.043632
     4  Na   0.328226  -0.213815
     5  Na  -0.000000   1.000000
     6  Na  -0.000000   1.000000
     7  Na  -0.000000  -1.000000
 Sum of Mulliken charges =  -0.00000   1.00000
 Mulliken charges and spin densities with hydrogens summed into heavy atoms:
               1          2
     1  Na  -0.000000   1.000000
     2  Na   0.086717  -0.829817
     3  Na  -0.414943   0.043632
     4  Na   0.328226  -0.213815
     5  Na  -0.000000   1.000000
     6  Na  -0.000000   1.000000
     7  Na  -0.000000  -1.000000
 Electronic spatial extent (au):  <R**2>=        1312125.9087
 Charge=             -0.0000 electrons
 Dipole moment (field-independent basis, Debye):
    X=              0.2343    Y=              0.2292    Z=             -0.3142  Tot=              0.4540
 Quadrupole moment (field-independent basis, Debye-Ang):
   XX=            -87.6706   YY=            -72.4908   ZZ=            -61.4075
   XY=             -1.0452   XZ=              1.8557   YZ=             -6.9884
 Traceless Quadrupole moment (field-independent basis, Debye-Ang):
   XX=            -13.8143   YY=              1.3655   ZZ=             12.4488
   XY=             -1.0452   XZ=              1.8557   YZ=             -6.9884
 Octapole moment (field-independent basis, Debye-Ang**2):
  XXX=             32.0293  YYY=            -95.4928  ZZZ=           -810.9817  XYY=           -287.8424
  XXY=           -191.5995  XXZ=              9.5493  XZZ=           -319.7229  YZZ=            204.5552
  YYZ=           -184.7484  XYZ=             64.1399
 Hexadecapole moment (field-independent basis, Debye-Ang**3):
 XXXX=       -1160325.9260 YYYY=        -636911.6259 ZZZZ=        -446549.9745 XXXY=          14179.3913
 XXXZ=           3443.9130 YYYX=           3478.0129 YYYZ=           2411.7888 ZZZX=          17186.7917
 ZZZY=          -5819.8826 XXYY=        -290869.3580 XXZZ=        -268487.3961 YYZZ=        -181331.9122
 XXYZ=           3660.7728 YYXZ=           7185.3201 ZZXY=          -2489.1596
 N-N= 5.602847532259D+01 E-N=-2.840315516402D+03  KE= 1.132822983917D+03
                          Isotropic Fermi Contact Couplings
        Atom                 a.u.       MegaHertz       Gauss      10(-4) cm-1
     1  Na(23)             0.79296     938.09922     334.73713     312.91622
     2  Na(23)            -0.69440    -821.49085    -293.12836    -274.01985
     3  Na(23)             0.09671     114.41450      40.82594      38.16457
     4  Na(23)            -0.20576    -243.41898     -86.85795     -81.19583
     5  Na(23)             0.79296     938.09919     334.73712     312.91621
     6  Na(23)             0.79296     938.09920     334.73712     312.91621
     7  Na(23)            -0.79296    -938.09920    -334.73712    -312.91621
 --------------------------------------------------------
       Center         ----  Spin Dipole Couplings  ----
                      3XX-RR        3YY-RR        3ZZ-RR
 --------------------------------------------------------
     1   Atom        0.000000      0.000000     -0.000000
     2   Atom        0.000112      0.000259     -0.000371
     3   Atom       -0.004660     -0.012823      0.017482
     4   Atom        0.000469      0.001142     -0.001612
     5   Atom        0.000000     -0.000000      0.000000
     6   Atom       -0.000000      0.000000     -0.000000
     7   Atom        0.000000     -0.000000     -0.000000
 --------------------------------------------------------
                        XY            XZ            YZ
 --------------------------------------------------------
     1   Atom       -0.000000      0.000000      0.000000
     2   Atom        0.000742     -0.000407     -0.000459
     3   Atom       -0.029997      0.009951      0.011348
     4   Atom        0.002423     -0.000741     -0.000893
     5   Atom        0.000000     -0.000000      0.000000
     6   Atom        0.000000     -0.000000      0.000000
     7   Atom       -0.000000     -0.000000     -0.000000
 --------------------------------------------------------


 ---------------------------------------------------------------------------------
              Anisotropic Spin Dipole Couplings in Principal Axis System
 ---------------------------------------------------------------------------------

       Atom             a.u.   MegaHertz   Gauss  10(-4) cm-1        Axes

              Baa    -0.0000    -0.000    -0.000    -0.000 -0.2419 -0.2599  0.9349
     1 Na(23) Bbb     0.0000     0.000     0.000     0.000  0.4992  0.7928  0.3496
              Bcc     0.0000     0.000     0.000     0.000  0.8320 -0.5513  0.0620
 
              Baa    -0.0006    -0.087    -0.031    -0.029  0.1568  0.3518  0.9228
     2 Na(23) Bbb    -0.0006    -0.079    -0.028    -0.026  0.7665 -0.6326  0.1109
              Bcc     0.0012     0.166     0.059     0.055  0.6228  0.6899 -0.3689
 
              Baa    -0.0428    -6.043    -2.156    -2.016  0.6381  0.7306 -0.2429
     3 Na(23) Bbb     0.0213     3.002     1.071     1.001  0.0731  0.2566  0.9638
              Bcc     0.0215     3.041     1.085     1.014  0.7665 -0.6327  0.1103
 
              Baa    -0.0019    -0.265    -0.095    -0.088  0.0602  0.2382  0.9693
     4 Na(23) Bbb    -0.0016    -0.231    -0.083    -0.077  0.7663 -0.6333  0.1081
              Bcc     0.0035     0.496     0.177     0.166  0.6396  0.7363 -0.2207
 
              Baa    -0.0000    -0.000    -0.000    -0.000 -0.6120  0.6886 -0.3889
     5 Na(23) Bbb     0.0000     0.000     0.000     0.000 -0.4274  0.1259  0.8953
              Bcc     0.0000     0.000     0.000     0.000  0.6654  0.7141  0.2173
 
              Baa    -0.0000    -0.000    -0.000    -0.000  0.7676 -0.5473  0.3335
     6 Na(23) Bbb     0.0000     0.000     0.000     0.000 -0.3299  0.1086  0.9377
              Bcc     0.0000     0.000     0.000     0.000  0.5494  0.8299  0.0973
 
              Baa    -0.0000    -0.000    -0.000    -0.000  0.5550  0.7270  0.4043
     7 Na(23) Bbb     0.0000     0.000     0.000     0.000 -0.4585 -0.1382  0.8779
              Bcc     0.0000     0.000     0.000     0.000  0.6940 -0.6726  0.2567
 

 ---------------------------------------------------------------------------------

 No NMR shielding tensors so no spin-rotation constants.
 Leave Link  601 at Thu Nov 23 12:43:13 2023, MaxMem=   104857600 cpu:              14.5 elap:               3.7
 (Enter /home/sekinelabo/g16/l701.exe)
 ... and contract with generalized density number  0.
 Compute integral first derivatives.
 Leave Link  701 at Thu Nov 23 12:43:15 2023, MaxMem=   104857600 cpu:               6.9 elap:               1.8
 (Enter /home/sekinelabo/g16/l702.exe)
 L702 exits ... SP integral derivatives will be done elsewhere.
 Leave Link  702 at Thu Nov 23 12:43:15 2023, MaxMem=   104857600 cpu:               0.8 elap:               0.2
 (Enter /home/sekinelabo/g16/l703.exe)
 Integral derivatives from FoFJK, PRISM(SPDF).
 Compute integral first derivatives, UseDBF=F ICtDFT=           0.
 Calling FoFJK, ICntrl=      2127 FMM=F ISym2X=0 I1Cent= 0 IOpClX= 1 NMat=1 NMatS=1 NMatT=0.
 FoFJK:  IHMeth= 1 ICntrl=    2127 DoSepK=F KAlg= 0 I1Cent=           0 FoldK=F
 IRaf=         0 NMat=       1 IRICut=       1 DoRegI=T DoRafI=F ISym2E= 0 IDoP0=0 IntGTp=1.
 FoFCou: FMM=F IPFlag=           0 FMFlag=      100000 FMFlg1=         800
         NFxFlg=           0 DoJE=F BraDBF=F KetDBF=F FulRan=T
         wScrn=  0.000000 ICntrl=      2127 IOpCl=  1 I1Cent=           0 NGrid=           0
         NMat0=    1 NMatS0=      1 NMatT0=    0 NMatD0=    1 NMtDS0=    0 NMtDT0=    0
 Symmetry not used in FoFCou.
 Leave Link  703 at Thu Nov 23 12:43:20 2023, MaxMem=   104857600 cpu:              16.4 elap:               4.2
 (Enter /home/sekinelabo/g16/l716.exe)
 Dipole        = 9.21877336D-02 9.01761474D-02-1.23602128D-01
 ***** Axes restored to original set *****
 -------------------------------------------------------------------
 Center     Atomic                   Forces (Hartrees/Bohr)
 Number     Number              X              Y              Z
 -------------------------------------------------------------------
      1       11          -0.000000000   -0.000000000    0.000000000
      2       11          -0.001811499    0.001430790    0.000090945
      3       11           0.004956237   -0.002379282   -0.000057916
      4       11          -0.003144738    0.000948493   -0.000033029
      5       11           0.000000000    0.000000000   -0.000000000
      6       11          -0.000000000   -0.000000000   -0.000000000
      7       11          -0.000000000   -0.000000000   -0.000000000
 -------------------------------------------------------------------
 Cartesian Forces:  Max     0.004956237 RMS     0.001485737
 Z-matrix is all fixed cartesians, so copy forces.
 Force constants in Cartesian coordinates: 
                1             2             3             4             5 
      1  0.100000D+01
      2  0.000000D+00  0.100000D+01
      3  0.000000D+00  0.000000D+00  0.100000D+01
      4  0.000000D+00  0.000000D+00  0.000000D+00  0.100000D+01
      5  0.000000D+00  0.000000D+00  0.000000D+00  0.000000D+00  0.100000D+01
      6  0.000000D+00  0.000000D+00  0.000000D+00  0.000000D+00  0.000000D+00
      7  0.000000D+00  0.000000D+00  0.000000D+00  0.000000D+00  0.000000D+00
      8  0.000000D+00  0.000000D+00  0.000000D+00  0.000000D+00  0.000000D+00
      9  0.000000D+00  0.000000D+00  0.000000D+00  0.000000D+00  0.000000D+00
     10  0.000000D+00  0.000000D+00  0.000000D+00  0.000000D+00  0.000000D+00
     11  0.000000D+00  0.000000D+00  0.000000D+00  0.000000D+00  0.000000D+00
     12  0.000000D+00  0.000000D+00  0.000000D+00  0.000000D+00  0.000000D+00
     13  0.000000D+00  0.000000D+00  0.000000D+00  0.000000D+00  0.000000D+00
     14  0.000000D+00  0.000000D+00  0.000000D+00  0.000000D+00  0.000000D+00
     15  0.000000D+00  0.000000D+00  0.000000D+00  0.000000D+00  0.000000D+00
     16  0.000000D+00  0.000000D+00  0.000000D+00  0.000000D+00  0.000000D+00
     17  0.000000D+00  0.000000D+00  0.000000D+00  0.000000D+00  0.000000D+00
     18  0.000000D+00  0.000000D+00  0.000000D+00  0.000000D+00  0.000000D+00
     19  0.000000D+00  0.000000D+00  0.000000D+00  0.000000D+00  0.000000D+00
     20  0.000000D+00  0.000000D+00  0.000000D+00  0.000000D+00  0.000000D+00
     21  0.000000D+00  0.000000D+00  0.000000D+00  0.000000D+00  0.000000D+00
                6             7             8             9            10 
      6  0.100000D+01
      7  0.000000D+00  0.368988D-01
      8  0.000000D+00 -0.105632D-01  0.302396D-02
      9  0.000000D+00  0.463821D-03 -0.132780D-03  0.583026D-05
     10  0.000000D+00 -0.368988D-01  0.105632D-01 -0.463821D-03  0.368988D-01
     11  0.000000D+00  0.105632D-01 -0.302396D-02  0.132780D-03 -0.105632D-01
     12  0.000000D+00 -0.463821D-03  0.132780D-03 -0.583026D-05  0.463821D-03
     13  0.000000D+00  0.000000D+00  0.000000D+00  0.000000D+00  0.000000D+00
     14  0.000000D+00  0.000000D+00  0.000000D+00  0.000000D+00  0.000000D+00
     15  0.000000D+00  0.000000D+00  0.000000D+00  0.000000D+00  0.000000D+00
     16  0.000000D+00  0.000000D+00  0.000000D+00  0.000000D+00  0.000000D+00
     17  0.000000D+00  0.000000D+00  0.000000D+00  0.000000D+00  0.000000D+00
     18  0.000000D+00  0.000000D+00  0.000000D+00  0.000000D+00  0.000000D+00
     19  0.000000D+00  0.000000D+00  0.000000D+00  0.000000D+00  0.000000D+00
     20  0.000000D+00  0.000000D+00  0.000000D+00  0.000000D+00  0.000000D+00
     21  0.000000D+00  0.000000D+00  0.000000D+00  0.000000D+00  0.000000D+00
               11            12            13            14            15 
     11  0.302396D-02
     12 -0.132780D-03  0.583026D-05
     13  0.000000D+00  0.000000D+00  0.100000D+01
     14  0.000000D+00  0.000000D+00  0.000000D+00  0.100000D+01
     15  0.000000D+00  0.000000D+00  0.000000D+00  0.000000D+00  0.100000D+01
     16  0.000000D+00  0.000000D+00  0.000000D+00  0.000000D+00  0.000000D+00
     17  0.000000D+00  0.000000D+00  0.000000D+00  0.000000D+00  0.000000D+00
     18  0.000000D+00  0.000000D+00  0.000000D+00  0.000000D+00  0.000000D+00
     19  0.000000D+00  0.000000D+00  0.000000D+00  0.000000D+00  0.000000D+00
     20  0.000000D+00  0.000000D+00  0.000000D+00  0.000000D+00  0.000000D+00
     21  0.000000D+00  0.000000D+00  0.000000D+00  0.000000D+00  0.000000D+00
               16            17            18            19            20 
     16  0.100000D+01
     17  0.000000D+00  0.100000D+01
     18  0.000000D+00  0.000000D+00  0.100000D+01
     19  0.000000D+00  0.000000D+00  0.000000D+00  0.100000D+01
     20  0.000000D+00  0.000000D+00  0.000000D+00  0.000000D+00  0.100000D+01
     21  0.000000D+00  0.000000D+00  0.000000D+00  0.000000D+00  0.000000D+00
               21 
     21  0.100000D+01
 Leave Link  716 at Thu Nov 23 12:43:20 2023, MaxMem=   104857600 cpu:               0.6 elap:               0.2
 (Enter /home/sekinelabo/g16/l103.exe)

 GradGradGradGradGradGradGradGradGradGradGradGradGradGradGradGradGradGrad
 Berny optimization.
 Search for a local minimum.
 Step number   1 out of a maximum of    2
 All quantities printed in internal units (Hartrees-Bohrs-Radians)
 Second derivative matrix not updated -- first step.
 ITU=  0
     Eigenvalues ---    0.00012   0.00019   0.07986   0.28571   0.42861
     Eigenvalues ---    0.44862   1.00000   1.00000   1.00000   1.00000
     Eigenvalues ---    1.00000   1.00000   1.00000   1.00000   1.00000
 Quadratic step=4.201D+00 exceeds max=3.000D-01 adjusted using Lamda=-2.265D-03.
 Angle between NR and scaled steps=  16.76 degrees.
 Angle between quadratic step and forces=  70.52 degrees.
 Linear search not attempted -- first point.
 B after Tr=     0.000000    0.000000   -0.000000
         Rot=    1.000000    0.000000    0.000000   -0.000000 Ang=   0.00 deg.
 Variable       Old X    -DE/DX   Delta X   Delta X   Delta X     New X
                                 (Linear)    (Quad)   (Total)
    X1       28.88106  -0.00000   0.00000  -0.00256  -0.00256  28.87850
    Y1      188.06517  -0.00000   0.00000   0.00084   0.00084 188.06601
    Z1        2.76038   0.00000   0.00000   0.00087   0.00087   2.76125
    X2       23.25762  -0.00181   0.00000  -0.00265  -0.00265  23.25496
    Y2        0.09880   0.00143   0.00000   0.00222   0.00222   0.10102
    Z2        3.20467   0.00009   0.00000   0.00009   0.00009   3.20477
    X3       16.76437   0.00496   0.00000  -0.00085  -0.00085  16.76352
    Y3        5.08748  -0.00238   0.00000  -0.21303  -0.21303   4.87445
    Z3        3.51327  -0.00006   0.00000  -0.03183  -0.03183   3.48144
    X4       11.39739  -0.00314   0.00000   0.00821   0.00821  11.40561
    Y4        6.62391   0.00095   0.00000   0.20649   0.20649   6.83040
    Z4        3.44580  -0.00003   0.00000   0.03123   0.03123   3.47703
    X5        5.99466   0.00000   0.00000  -0.00065  -0.00065   5.99402
    Y5       10.42774   0.00000   0.00000  -0.00024  -0.00024  10.42750
    Z5      188.82805  -0.00000   0.00000   0.00008   0.00008 188.82813
    X6      187.84634  -0.00000   0.00000  -0.00062  -0.00062 187.84571
    Y6        7.63640  -0.00000   0.00000   0.00143   0.00143   7.63783
    Z6      188.37433  -0.00000   0.00000  -0.00022  -0.00022 188.37411
    X7      187.53566  -0.00000   0.00000  -0.00089  -0.00089 187.53478
    Y7        5.33528  -0.00000   0.00000   0.00228   0.00228   5.33756
    Z7        4.76513  -0.00000   0.00000  -0.00023  -0.00023   4.76490
         Item               Value     Threshold  Converged?
 Maximum Force            0.004956     0.000450     NO 
 RMS     Force            0.001486     0.000300     NO 
 Maximum Displacement     0.213029     0.001800     NO 
 RMS     Displacement     0.065504     0.001200     NO 
 Predicted change in Energy=-4.427601D-04
 GradGradGradGradGradGradGradGradGradGradGradGradGradGradGradGradGradGrad

 Leave Link  103 at Thu Nov 23 12:43:21 2023, MaxMem=   104857600 cpu:               4.0 elap:               1.1
 (Enter /home/sekinelabo/g16/l9999.exe)
 1\1\GINC-SEKINELABO-XA7R-R37\Force\UB3LYP\6-311+G(d)\Na7(2)\SEKINELABO
 \23-Nov-2023\0\\#P B3LYP/6-311+g(d) force\\DPGEN\\0,2\Na,15.2832,99.51
 98,1.46073\Na,12.3074,0.052285,1.69584\Na,8.87132,2.69218,1.85914\Na,6
 .03124,3.50522,1.82344\Na,3.17224,5.51812,99.9235\Na,99.404,4.04101,99
 .6834\Na,99.2396,2.82331,2.5216\\Version=ES64L-G16RevB.01\State=2-A\HF
 =-1136.038304\S2=2.765116\S2-1=0.\S2A=3.738996\RMSD=8.025e-09\RMSF=1.4
 86e-03\Dipole=0.0985011,-0.1483791,-0.013747\Quadrupole=-4.3478154,6.6
 868035,-2.3389881,0.5897884,-4.600455,8.3387833\PG=C01 [X(Na7)]\\@


 AS FAR AS THE LAWS OF MATHEMATICS REFER TO REALITY,
 THEY ARE NOT CERTAIN; AND AS FAR AS THEY ARE CERTAIN,
 THEY DO NOT REFER TO REALITY.

                                         -- ALBERT EINSTEIN
 Job cpu time:       0 days  0 hours 14 minutes 16.4 seconds.
 Elapsed time:       0 days  0 hours 13 minutes  0.4 seconds.
 File lengths (MBytes):  RWF=     46 Int=      0 D2E=      0 Chk=      4 Scr=      1
 Normal termination of Gaussian 16 at Thu Nov 23 12:43:21 2023.
