 Entering Gaussian System, Link 0=g16
 Initial command:
 /home/sekinelabo/g16/l1.exe "/home/sekinelabo/g16temp/Gau-934088.inp" -scrdir="/home/sekinelabo/g16temp/"
 Entering Link 1 = /home/sekinelabo/g16/l1.exe PID=    934112.
  
 Copyright (c) 1988-2017, Gaussian, Inc.  All Rights Reserved.
  
 This is part of the Gaussian(R) 16 program.  It is based on
 the Gaussian(R) 09 system (copyright 2009, Gaussian, Inc.),
 the Gaussian(R) 03 system (copyright 2003, Gaussian, Inc.),
 the Gaussian(R) 98 system (copyright 1998, Gaussian, Inc.),
 the Gaussian(R) 94 system (copyright 1995, Gaussian, Inc.),
 the Gaussian 92(TM) system (copyright 1992, Gaussian, Inc.),
 the Gaussian 90(TM) system (copyright 1990, Gaussian, Inc.),
 the Gaussian 88(TM) system (copyright 1988, Gaussian, Inc.),
 the Gaussian 86(TM) system (copyright 1986, Carnegie Mellon
 University), and the Gaussian 82(TM) system (copyright 1983,
 Carnegie Mellon University). Gaussian is a federally registered
 trademark of Gaussian, Inc.
  
 This software contains proprietary and confidential information,
 including trade secrets, belonging to Gaussian, Inc.
  
 This software is provided under written license and may be
 used, copied, transmitted, or stored only in accord with that
 written license.
  
 The following legend is applicable only to US Government
 contracts under FAR:
  
                    RESTRICTED RIGHTS LEGEND
  
 Use, reproduction and disclosure by the US Government is
 subject to restrictions as set forth in subparagraphs (a)
 and (c) of the Commercial Computer Software - Restricted
 Rights clause in FAR 52.227-19.
  
 Gaussian, Inc.
 340 Quinnipiac St., Bldg. 40, Wallingford CT 06492
  
  
 ---------------------------------------------------------------
 Warning -- This program may not be used in any manner that
 competes with the business of Gaussian, Inc. or will provide
 assistance to any competitor of Gaussian, Inc.  The licensee
 of this program is prohibited from giving any competitor of
 Gaussian, Inc. access to this program.  By using this program,
 the user acknowledges that Gaussian, Inc. is engaged in the
 business of creating and licensing software in the field of
 computational chemistry and represents and warrants to the
 licensee that it is not a competitor of Gaussian, Inc. and that
 it will not use this program in any manner prohibited above.
 ---------------------------------------------------------------
  

 Cite this work as:
 Gaussian 16, Revision B.01,
 M. J. Frisch, G. W. Trucks, H. B. Schlegel, G. E. Scuseria, 
 M. A. Robb, J. R. Cheeseman, G. Scalmani, V. Barone, 
 G. A. Petersson, H. Nakatsuji, X. Li, M. Caricato, A. V. Marenich, 
 J. Bloino, B. G. Janesko, R. Gomperts, B. Mennucci, H. P. Hratchian, 
 J. V. Ortiz, A. F. Izmaylov, J. L. Sonnenberg, D. Williams-Young, 
 F. Ding, F. Lipparini, F. Egidi, J. Goings, B. Peng, A. Petrone, 
 T. Henderson, D. Ranasinghe, V. G. Zakrzewski, J. Gao, N. Rega, 
 G. Zheng, W. Liang, M. Hada, M. Ehara, K. Toyota, R. Fukuda, 
 J. Hasegawa, M. Ishida, T. Nakajima, Y. Honda, O. Kitao, H. Nakai, 
 T. Vreven, K. Throssell, J. A. Montgomery, Jr., J. E. Peralta, 
 F. Ogliaro, M. J. Bearpark, J. J. Heyd, E. N. Brothers, K. N. Kudin, 
 V. N. Staroverov, T. A. Keith, R. Kobayashi, J. Normand, 
 K. Raghavachari, A. P. Rendell, J. C. Burant, S. S. Iyengar, 
 J. Tomasi, M. Cossi, J. M. Millam, M. Klene, C. Adamo, R. Cammi, 
 J. W. Ochterski, R. L. Martin, K. Morokuma, O. Farkas, 
 J. B. Foresman, and D. J. Fox, Gaussian, Inc., Wallingford CT, 2016.
 
 ******************************************
 Gaussian 16:  ES64L-G16RevB.01 20-Dec-2017
                21-Nov-2023 
 ******************************************
 %nprocshared=14
 Will use up to   14 processors via shared memory.
 -------------------------
 #P B3LYP/6-311+g(d) force
 -------------------------
 1/10=7,30=1,38=1/1,3;
 2/12=2,17=6,18=5,40=1/2;
 3/5=4,6=6,7=11,11=2,25=1,30=1,71=1,74=-5/1,2,3;
 4//1;
 5/5=2,38=5/2;
 6/7=2,8=2,9=2,10=2,28=1/1;
 7/29=1/1,2,3,16;
 1/10=7,30=1/3;
 99//99;
 Leave Link    1 at Tue Nov 21 11:40:17 2023, MaxMem=           0 cpu:               0.5 elap:               0.3
 (Enter /home/sekinelabo/g16/l101.exe)
 -----
 DPGEN
 -----
 Symbolic Z-matrix:
 Charge =  0 Multiplicity = 2
 Na                    9.53076   29.9595   1.66967 
 Na                    10.6097   2.07099   29.5774 
 Na                    9.17281   5.03766   29.8793 
 Na                    6.6518    4.98675   2.25604 
 Na                    5.51427   2.055     2.07579 
 Na                    2.44126   2.21367   0.68544 
 Na                    0.38835   1.82839   2.82399 
 
 ITRead=  0  0  0  0  0  0  0
 MicOpt= -1 -1 -1 -1 -1 -1 -1
 NAtoms=      7 NQM=        7 NQMF=       0 NMMI=      0 NMMIF=      0
                NMic=       0 NMicF=      0.
                    Isotopes and Nuclear Properties:
 (Nuclear quadrupole moments (NQMom) in fm**2, nuclear magnetic moments (NMagM)
  in nuclear magnetons)

  Atom         1           2           3           4           5           6           7
 IAtWgt=          23          23          23          23          23          23          23
 AtmWgt=  22.9897697  22.9897697  22.9897697  22.9897697  22.9897697  22.9897697  22.9897697
 NucSpn=           3           3           3           3           3           3           3
 AtZEff=  -0.0000000  -0.0000000  -0.0000000  -0.0000000  -0.0000000  -0.0000000  -0.0000000
 NQMom=   10.4000000  10.4000000  10.4000000  10.4000000  10.4000000  10.4000000  10.4000000
 NMagM=    2.2175200   2.2175200   2.2175200   2.2175200   2.2175200   2.2175200   2.2175200
 AtZNuc=  11.0000000  11.0000000  11.0000000  11.0000000  11.0000000  11.0000000  11.0000000
 Leave Link  101 at Tue Nov 21 11:40:19 2023, MaxMem=   104857600 cpu:               2.4 elap:               2.6
 (Enter /home/sekinelabo/g16/l103.exe)

 GradGradGradGradGradGradGradGradGradGradGradGradGradGradGradGradGradGrad
 Berny optimization.
 Initialization pass.
 Trust Radius=3.00D-01 FncErr=1.00D-07 GrdErr=1.00D-07 EigMax=2.50D+02 EigMin=1.00D-04
 Number of steps in this run=      2 maximum allowed number of steps=      2.
 GradGradGradGradGradGradGradGradGradGradGradGradGradGradGradGradGradGrad

 Leave Link  103 at Tue Nov 21 11:40:20 2023, MaxMem=   104857600 cpu:               0.5 elap:               0.4
 (Enter /home/sekinelabo/g16/l202.exe)
                          Input orientation:                          
 ---------------------------------------------------------------------
 Center     Atomic      Atomic             Coordinates (Angstroms)
 Number     Number       Type             X           Y           Z
 ---------------------------------------------------------------------
      1         11           0        9.530760   29.959500    1.669670
      2         11           0       10.609700    2.070990   29.577400
      3         11           0        9.172810    5.037660   29.879300
      4         11           0        6.651800    4.986750    2.256040
      5         11           0        5.514270    2.055000    2.075790
      6         11           0        2.441260    2.213670    0.685443
      7         11           0        0.388346    1.828390    2.823990
 ---------------------------------------------------------------------
                    Distance matrix (angstroms):
                    1          2          3          4          5
     1  Na   0.000000
     2  Na  39.468652   0.000000
     3  Na  37.643186   3.310125   0.000000
     4  Na  25.144989  27.760103  27.738107   0.000000
     5  Na  28.195004  27.969666  28.201354   3.149861   0.000000
     6  Na  28.654158  30.024806  30.092690   5.280662   3.376630
     7  Na  29.601952  28.640529  28.626142   7.037660   5.185195
                    6          7
     6  Na   0.000000
     7  Na   2.989361   0.000000
 Stoichiometry    Na7(2)
 Framework group  C1[X(Na7)]
 Deg. of freedom    15
 Full point group                 C1      NOp   1
 Largest Abelian subgroup         C1      NOp   1
 Largest concise Abelian subgroup C1      NOp   1
                         Standard orientation:                         
 ---------------------------------------------------------------------
 Center     Atomic      Atomic             Coordinates (Angstroms)
 Number     Number       Type             X           Y           Z
 ---------------------------------------------------------------------
      1         11           0      -14.075907   20.290153    0.315758
      2         11           0       20.663452    1.601344   -0.980325
      3         11           0       19.873205    4.046904    1.105742
      4         11           0       -6.578460   -3.565448   -2.324143
      5         11           0       -6.046453   -6.644300   -1.925073
      6         11           0       -7.840638   -7.674094    0.743645
      7         11           0       -5.995199   -8.054559    3.064395
 ---------------------------------------------------------------------
 Rotational constants (GHZ):           0.0347503           0.0180388           0.0121548
 Leave Link  202 at Tue Nov 21 11:40:21 2023, MaxMem=   104857600 cpu:               0.8 elap:               0.8
 (Enter /home/sekinelabo/g16/l301.exe)
 Standard basis: 6-311+G(d) (5D, 7F)
 Ernie: Thresh=  0.10000D-02 Tol=  0.10000D-05 Strict=F.
 There are   217 symmetry adapted cartesian basis functions of A   symmetry.
 There are   210 symmetry adapted basis functions of A   symmetry.
   210 basis functions,   350 primitive gaussians,   217 cartesian basis functions
    39 alpha electrons       38 beta electrons
       nuclear repulsion energy       144.0724034505 Hartrees.
 IExCor=  402 DFT=T Ex+Corr=B3LYP ExCW=0 ScaHFX=  0.200000
 ScaDFX=  0.800000  0.720000  1.000000  0.810000 ScalE2=  1.000000  1.000000
 IRadAn=      5 IRanWt=     -1 IRanGd=            0 ICorTp=0 IEmpDi=  4
 NAtoms=    7 NActive=    7 NUniq=    7 SFac= 1.00D+00 NAtFMM=   60 NAOKFM=F Big=F
 Integral buffers will be    131072 words long.
 Raffenetti 2 integral format.
 Two-electron integral symmetry is turned on.
 Leave Link  301 at Tue Nov 21 11:40:22 2023, MaxMem=   104857600 cpu:               0.6 elap:               0.7
 (Enter /home/sekinelabo/g16/l302.exe)
 NPDir=0 NMtPBC=     1 NCelOv=     1 NCel=       1 NClECP=     1 NCelD=      1
         NCelK=      1 NCelE2=     1 NClLst=     1 CellRange=     0.0.
 One-electron integrals computed using PRISM.
 One-electron integral symmetry used in STVInt
 NBasis=   210 RedAO= T EigKep=  6.65D-05  NBF=   210
 NBsUse=   210 1.00D-06 EigRej= -1.00D+00 NBFU=   210
 Precomputing XC quadrature grid using
 IXCGrd= 4 IRadAn=           5 IRanWt=          -1 IRanGd=           0 AccXCQ= 0.00D+00.
 Generated NRdTot=       0 NPtTot=           0 NUsed=           0 NTot=          32
 NSgBfM=   140   140   140   140   140 MxSgAt=     7 MxSgA2=     7.
 Leave Link  302 at Tue Nov 21 11:40:54 2023, MaxMem=   104857600 cpu:              30.0 elap:              32.3
 (Enter /home/sekinelabo/g16/l303.exe)
 DipDrv:  MaxL=1.
 Leave Link  303 at Tue Nov 21 11:40:57 2023, MaxMem=   104857600 cpu:               2.4 elap:               2.5
 (Enter /home/sekinelabo/g16/l401.exe)
 ExpMin= 7.60D-03 ExpMax= 3.62D+04 ExpMxC= 1.21D+03 IAcc=3 IRadAn=         5 AccDes= 0.00D+00
 Harris functional with IExCor=  402 and IRadAn=       5 diagonalized for initial guess.
 HarFok:  IExCor=  402 AccDes= 0.00D+00 IRadAn=         5 IDoV= 1 UseB2=F ITyADJ=14
 ICtDFT=  3500011 ScaDFX=  1.000000  1.000000  1.000000  1.000000
 FoFCou: FMM=F IPFlag=           0 FMFlag=      100000 FMFlg1=           0
         NFxFlg=           0 DoJE=T BraDBF=F KetDBF=T FulRan=T
         wScrn=  0.000000 ICntrl=       500 IOpCl=  0 I1Cent=   200000004 NGrid=           0
         NMat0=    1 NMatS0=      1 NMatT0=    0 NMatD0=    1 NMtDS0=    0 NMtDT0=    0
 Petite list used in FoFCou.
 Harris En= -1135.86059600890    
 JPrj=0 DoOrth=F DoCkMO=F.
 Initial guess <Sx>= 0.0000 <Sy>= 0.0000 <Sz>= 0.5000 <S**2>= 0.7500 S= 0.5000
 Leave Link  401 at Tue Nov 21 11:41:14 2023, MaxMem=   104857600 cpu:              15.5 elap:              17.0
 (Enter /home/sekinelabo/g16/l502.exe)
 Integral symmetry usage will be decided dynamically.
 UHF open shell SCF:
 Using DIIS extrapolation, IDIIS=  1040.
 NGot=   104857600 LenX=   104758426 LenY=   104710896
 Requested convergence on RMS density matrix=1.00D-08 within 128 cycles.
 Requested convergence on MAX density matrix=1.00D-06.
 Requested convergence on             energy=1.00D-06.
 No special actions if energy rises.
 Fock matrices will be formed incrementally for  20 cycles.

 Cycle   1  Pass 1  IDiag  1:
 FoFJK:  IHMeth= 1 ICntrl=       0 DoSepK=F KAlg= 0 I1Cent=           0 FoldK=F
 IRaf= 500000000 NMat=       1 IRICut=       1 DoRegI=T DoRafI=F ISym2E= 0 IDoP0=0 IntGTp=1.
 FoFCou: FMM=F IPFlag=           0 FMFlag=      100000 FMFlg1=           0
         NFxFlg=           0 DoJE=F BraDBF=F KetDBF=F FulRan=T
         wScrn=  0.000000 ICntrl=         0 IOpCl=  1 I1Cent=           0 NGrid=           0
         NMat0=    1 NMatS0=      1 NMatT0=    0 NMatD0=    1 NMtDS0=    0 NMtDT0=    0
 Symmetry not used in FoFCou.
 E= -1136.06731465840    
 DIIS: error= 2.00D-02 at cycle   1 NSaved=   1.
 NSaved= 1 IEnMin= 1 EnMin= -1136.06731465840     IErMin= 1 ErrMin= 2.00D-02
 ErrMax= 2.00D-02  0.00D+00 EMaxC= 1.00D-01 BMatC= 1.82D-01 BMatP= 1.82D-01
 IDIUse=3 WtCom= 8.00D-01 WtEn= 2.00D-01
 Coeff-Com:  0.100D+01
 Coeff-En:   0.100D+01
 Coeff:      0.100D+01
 Gap=     0.073 Goal=   None    Shift=    0.000
 Gap=     0.040 Goal=   None    Shift=    0.000
 GapD=    0.040 DampG=0.250 DampE=0.500 DampFc=0.2500 IDamp=-1.
 Damping current iteration by 2.50D-01
 RMSDP=2.66D-03 MaxDP=1.02D-01              OVMax= 1.02D-01

 Cycle   2  Pass 1  IDiag  1:
 RMSU=  6.47D-04    CP:  9.92D-01
 E= -1136.07475224618     Delta-E=       -0.007437587779 Rises=F Damp=T
 DIIS: error= 1.39D-02 at cycle   2 NSaved=   2.
 NSaved= 2 IEnMin= 2 EnMin= -1136.07475224618     IErMin= 2 ErrMin= 1.39D-02
 ErrMax= 1.39D-02  0.00D+00 EMaxC= 1.00D-01 BMatC= 7.09D-02 BMatP= 1.82D-01
 IDIUse=3 WtCom= 8.61D-01 WtEn= 1.39D-01
 Coeff-Com: -0.132D+01 0.232D+01
 Coeff-En:   0.000D+00 0.100D+01
 Coeff:     -0.114D+01 0.214D+01
 Gap=     0.053 Goal=   None    Shift=    0.000
 Gap=     0.053 Goal=   None    Shift=    0.000
 RMSDP=2.54D-03 MaxDP=1.08D-01 DE=-7.44D-03 OVMax= 4.36D-02

 Cycle   3  Pass 1  IDiag  1:
 RMSU=  1.31D-03    CP:  9.59D-01  3.00D+00
 E= -1136.09022139200     Delta-E=       -0.015469145825 Rises=F Damp=F
 DIIS: error= 6.64D-04 at cycle   3 NSaved=   3.
 NSaved= 3 IEnMin= 3 EnMin= -1136.09022139200     IErMin= 3 ErrMin= 6.64D-04
 ErrMax= 6.64D-04  0.00D+00 EMaxC= 1.00D-01 BMatC= 2.77D-04 BMatP= 7.09D-02
 IDIUse=3 WtCom= 9.93D-01 WtEn= 6.64D-03
 Coeff-Com:  0.103D+00-0.130D+00 0.103D+01
 Coeff-En:   0.000D+00 0.000D+00 0.100D+01
 Coeff:      0.103D+00-0.129D+00 0.103D+01
 Gap=     0.054 Goal=   None    Shift=    0.000
 Gap=     0.054 Goal=   None    Shift=    0.000
 RMSDP=3.10D-04 MaxDP=1.53D-02 DE=-1.55D-02 OVMax= 2.14D-02

 Cycle   4  Pass 1  IDiag  1:
 RMSU=  2.54D-04    CP:  9.55D-01  3.00D+00  1.13D+00
 E= -1136.09022773984     Delta-E=       -0.000006347838 Rises=F Damp=F
 DIIS: error= 4.72D-04 at cycle   4 NSaved=   4.
 NSaved= 4 IEnMin= 4 EnMin= -1136.09022773984     IErMin= 4 ErrMin= 4.72D-04
 ErrMax= 4.72D-04  0.00D+00 EMaxC= 1.00D-01 BMatC= 1.33D-04 BMatP= 2.77D-04
 IDIUse=3 WtCom= 9.95D-01 WtEn= 4.72D-03
 Coeff-Com:  0.595D-01-0.785D-01 0.522D+00 0.497D+00
 Coeff-En:   0.000D+00 0.000D+00 0.481D+00 0.519D+00
 Coeff:      0.593D-01-0.781D-01 0.522D+00 0.497D+00
 Gap=     0.054 Goal=   None    Shift=    0.000
 Gap=     0.054 Goal=   None    Shift=    0.000
 RMSDP=1.21D-04 MaxDP=1.01D-02 DE=-6.35D-06 OVMax= 1.21D-02

 Cycle   5  Pass 1  IDiag  1:
 RMSU=  3.79D-05    CP:  9.55D-01  3.00D+00  1.16D+00  5.79D-01
 E= -1136.09032121110     Delta-E=       -0.000093471265 Rises=F Damp=F
 DIIS: error= 6.56D-05 at cycle   5 NSaved=   5.
 NSaved= 5 IEnMin= 5 EnMin= -1136.09032121110     IErMin= 5 ErrMin= 6.56D-05
 ErrMax= 6.56D-05  0.00D+00 EMaxC= 1.00D-01 BMatC= 2.53D-06 BMatP= 1.33D-04
 IDIUse=1 WtCom= 1.00D+00 WtEn= 0.00D+00
 Coeff-Com:  0.136D-01-0.185D-01 0.119D+00 0.170D+00 0.715D+00
 Coeff:      0.136D-01-0.185D-01 0.119D+00 0.170D+00 0.715D+00
 Gap=     0.054 Goal=   None    Shift=    0.000
 Gap=     0.054 Goal=   None    Shift=    0.000
 RMSDP=2.18D-05 MaxDP=1.42D-03 DE=-9.35D-05 OVMax= 1.96D-03

 Cycle   6  Pass 1  IDiag  1:
 RMSU=  1.15D-05    CP:  9.55D-01  3.00D+00  1.17D+00  6.28D-01  7.22D-01
 E= -1136.09032305132     Delta-E=       -0.000001840215 Rises=F Damp=F
 DIIS: error= 1.49D-05 at cycle   6 NSaved=   6.
 NSaved= 6 IEnMin= 6 EnMin= -1136.09032305132     IErMin= 6 ErrMin= 1.49D-05
 ErrMax= 1.49D-05  0.00D+00 EMaxC= 1.00D-01 BMatC= 1.14D-07 BMatP= 2.53D-06
 IDIUse=1 WtCom= 1.00D+00 WtEn= 0.00D+00
 Coeff-Com:  0.739D-03-0.113D-02 0.154D-01 0.271D-01 0.184D+00 0.774D+00
 Coeff:      0.739D-03-0.113D-02 0.154D-01 0.271D-01 0.184D+00 0.774D+00
 Gap=     0.054 Goal=   None    Shift=    0.000
 Gap=     0.054 Goal=   None    Shift=    0.000
 RMSDP=6.87D-06 MaxDP=5.19D-04 DE=-1.84D-06 OVMax= 8.11D-04

 Cycle   7  Pass 1  IDiag  1:
 RMSU=  4.60D-06    CP:  9.55D-01  3.00D+00  1.17D+00  6.31D-01  7.88D-01
                    CP:  9.06D-01
 E= -1136.09032311512     Delta-E=       -0.000000063803 Rises=F Damp=F
 DIIS: error= 1.12D-05 at cycle   7 NSaved=   7.
 NSaved= 7 IEnMin= 7 EnMin= -1136.09032311512     IErMin= 7 ErrMin= 1.12D-05
 ErrMax= 1.12D-05  0.00D+00 EMaxC= 1.00D-01 BMatC= 4.04D-08 BMatP= 1.14D-07
 IDIUse=1 WtCom= 1.00D+00 WtEn= 0.00D+00
 Coeff-Com: -0.115D-02 0.150D-02-0.481D-02-0.517D-02 0.575D-02 0.410D+00
 Coeff-Com:  0.594D+00
 Coeff:     -0.115D-02 0.150D-02-0.481D-02-0.517D-02 0.575D-02 0.410D+00
 Coeff:      0.594D+00
 Gap=     0.054 Goal=   None    Shift=    0.000
 Gap=     0.054 Goal=   None    Shift=    0.000
 RMSDP=2.70D-06 MaxDP=2.45D-04 DE=-6.38D-08 OVMax= 3.79D-04

 Cycle   8  Pass 1  IDiag  1:
 RMSU=  1.05D-06    CP:  9.55D-01  3.00D+00  1.17D+00  6.33D-01  7.79D-01
                    CP:  1.03D+00  6.36D-01
 E= -1136.09032315443     Delta-E=       -0.000000039308 Rises=F Damp=F
 DIIS: error= 1.43D-06 at cycle   8 NSaved=   8.
 NSaved= 8 IEnMin= 8 EnMin= -1136.09032315443     IErMin= 8 ErrMin= 1.43D-06
 ErrMax= 1.43D-06  0.00D+00 EMaxC= 1.00D-01 BMatC= 1.27D-09 BMatP= 4.04D-08
 IDIUse=1 WtCom= 1.00D+00 WtEn= 0.00D+00
 Coeff-Com: -0.233D-03 0.308D-03-0.222D-02-0.359D-02-0.189D-01 0.430D-01
 Coeff-Com:  0.168D+00 0.814D+00
 Coeff:     -0.233D-03 0.308D-03-0.222D-02-0.359D-02-0.189D-01 0.430D-01
 Coeff:      0.168D+00 0.814D+00
 Gap=     0.054 Goal=   None    Shift=    0.000
 Gap=     0.054 Goal=   None    Shift=    0.000
 RMSDP=5.58D-07 MaxDP=3.11D-05 DE=-3.93D-08 OVMax= 5.44D-05

 Cycle   9  Pass 1  IDiag  1:
 RMSU=  2.25D-07    CP:  9.55D-01  3.00D+00  1.17D+00  6.34D-01  7.80D-01
                    CP:  1.05D+00  7.18D-01  9.83D-01
 E= -1136.09032315567     Delta-E=       -0.000000001237 Rises=F Damp=F
 DIIS: error= 4.68D-07 at cycle   9 NSaved=   9.
 NSaved= 9 IEnMin= 9 EnMin= -1136.09032315567     IErMin= 9 ErrMin= 4.68D-07
 ErrMax= 4.68D-07  0.00D+00 EMaxC= 1.00D-01 BMatC= 5.93D-11 BMatP= 1.27D-09
 IDIUse=1 WtCom= 1.00D+00 WtEn= 0.00D+00
 Coeff-Com:  0.497D-04-0.642D-04-0.168D-03-0.636D-03-0.607D-02-0.182D-01
 Coeff-Com:  0.219D-02 0.218D+00 0.805D+00
 Coeff:      0.497D-04-0.642D-04-0.168D-03-0.636D-03-0.607D-02-0.182D-01
 Coeff:      0.219D-02 0.218D+00 0.805D+00
 Gap=     0.054 Goal=   None    Shift=    0.000
 Gap=     0.054 Goal=   None    Shift=    0.000
 RMSDP=1.61D-07 MaxDP=7.33D-06 DE=-1.24D-09 OVMax= 1.08D-05

 Cycle  10  Pass 1  IDiag  1:
 RMSU=  4.07D-08    CP:  9.55D-01  3.00D+00  1.17D+00  6.34D-01  7.81D-01
                    CP:  1.06D+00  7.22D-01  1.06D+00  8.86D-01
 E= -1136.09032315573     Delta-E=       -0.000000000065 Rises=F Damp=F
 DIIS: error= 6.88D-08 at cycle  10 NSaved=  10.
 NSaved=10 IEnMin=10 EnMin= -1136.09032315573     IErMin=10 ErrMin= 6.88D-08
 ErrMax= 6.88D-08  0.00D+00 EMaxC= 1.00D-01 BMatC= 1.52D-12 BMatP= 5.93D-11
 IDIUse=1 WtCom= 1.00D+00 WtEn= 0.00D+00
 Coeff-Com:  0.161D-04-0.208D-04-0.431D-05-0.846D-04-0.102D-02-0.644D-02
 Coeff-Com: -0.485D-02 0.324D-01 0.200D+00 0.780D+00
 Coeff:      0.161D-04-0.208D-04-0.431D-05-0.846D-04-0.102D-02-0.644D-02
 Coeff:     -0.485D-02 0.324D-01 0.200D+00 0.780D+00
 Gap=     0.054 Goal=   None    Shift=    0.000
 Gap=     0.054 Goal=   None    Shift=    0.000
 RMSDP=2.27D-08 MaxDP=7.72D-07 DE=-6.50D-11 OVMax= 1.38D-06

 Cycle  11  Pass 1  IDiag  1:
 RMSU=  1.09D-08    CP:  9.55D-01  3.00D+00  1.17D+00  6.34D-01  7.81D-01
                    CP:  1.06D+00  7.24D-01  1.07D+00  9.17D-01  1.11D+00
 E= -1136.09032315573     Delta-E=        0.000000000002 Rises=F Damp=F
 DIIS: error= 1.63D-08 at cycle  11 NSaved=  11.
 NSaved=11 IEnMin=10 EnMin= -1136.09032315573     IErMin=11 ErrMin= 1.63D-08
 ErrMax= 1.63D-08  0.00D+00 EMaxC= 1.00D-01 BMatC= 2.34D-13 BMatP= 1.52D-12
 IDIUse=1 WtCom= 1.00D+00 WtEn= 0.00D+00
 Coeff-Com:  0.116D-05-0.150D-05 0.209D-04 0.383D-04 0.273D-03-0.663D-03
 Coeff-Com: -0.227D-02-0.914D-02-0.279D-02 0.280D+00 0.735D+00
 Coeff:      0.116D-05-0.150D-05 0.209D-04 0.383D-04 0.273D-03-0.663D-03
 Coeff:     -0.227D-02-0.914D-02-0.279D-02 0.280D+00 0.735D+00
 Gap=     0.054 Goal=   None    Shift=    0.000
 Gap=     0.054 Goal=   None    Shift=    0.000
 RMSDP=9.16D-09 MaxDP=4.35D-07 DE= 1.82D-12 OVMax= 4.57D-07

 SCF Done:  E(UB3LYP) =  -1136.09032316     A.U. after   11 cycles
            NFock= 11  Conv=0.92D-08     -V/T= 2.0029
 <Sx>= 0.0000 <Sy>= 0.0000 <Sz>= 0.5000 <S**2>= 0.7500 S= 0.5000
 <L.S>= 0.000000000000E+00
 KE= 1.132851792068D+03 PE=-3.017080740081D+03 EE= 6.040662214070D+02
 Annihilation of the first spin contaminant:
 S**2 before annihilation     0.7500,   after     0.7500
 Leave Link  502 at Tue Nov 21 11:46:32 2023, MaxMem=   104857600 cpu:             295.0 elap:             317.8
 (Enter /home/sekinelabo/g16/l601.exe)
 Copying SCF densities to generalized density rwf, IOpCl= 1 IROHF=0.

 **********************************************************************

            Population analysis using the SCF Density.

 **********************************************************************

 Orbital symmetries:
 Alpha Orbitals:
       Occupied  (A) (A) (A) (A) (A) (A) (A) (A) (A) (A) (A) (A)
                 (A) (A) (A) (A) (A) (A) (A) (A) (A) (A) (A) (A)
                 (A) (A) (A) (A) (A) (A) (A) (A) (A) (A) (A) (A)
                 (A) (A) (A)
       Virtual   (A) (A) (A) (A) (A) (A) (A) (A) (A) (A) (A) (A)
                 (A) (A) (A) (A) (A) (A) (A) (A) (A) (A) (A) (A)
                 (A) (A) (A) (A) (A) (A) (A) (A) (A) (A) (A) (A)
                 (A) (A) (A) (A) (A) (A) (A) (A) (A) (A) (A) (A)
                 (A) (A) (A) (A) (A) (A) (A) (A) (A) (A) (A) (A)
                 (A) (A) (A) (A) (A) (A) (A) (A) (A) (A) (A) (A)
                 (A) (A) (A) (A) (A) (A) (A) (A) (A) (A) (A) (A)
                 (A) (A) (A) (A) (A) (A) (A) (A) (A) (A) (A) (A)
                 (A) (A) (A) (A) (A) (A) (A) (A) (A) (A) (A) (A)
                 (A) (A) (A) (A) (A) (A) (A) (A) (A) (A) (A) (A)
                 (A) (A) (A) (A) (A) (A) (A) (A) (A) (A) (A) (A)
                 (A) (A) (A) (A) (A) (A) (A) (A) (A) (A) (A) (A)
                 (A) (A) (A) (A) (A) (A) (A) (A) (A) (A) (A) (A)
                 (A) (A) (A) (A) (A) (A) (A) (A) (A) (A) (A) (A)
                 (A) (A) (A)
 Beta  Orbitals:
       Occupied  (A) (A) (A) (A) (A) (A) (A) (A) (A) (A) (A) (A)
                 (A) (A) (A) (A) (A) (A) (A) (A) (A) (A) (A) (A)
                 (A) (A) (A) (A) (A) (A) (A) (A) (A) (A) (A) (A)
                 (A) (A)
       Virtual   (A) (A) (A) (A) (A) (A) (A) (A) (A) (A) (A) (A)
                 (A) (A) (A) (A) (A) (A) (A) (A) (A) (A) (A) (A)
                 (A) (A) (A) (A) (A) (A) (A) (A) (A) (A) (A) (A)
                 (A) (A) (A) (A) (A) (A) (A) (A) (A) (A) (A) (A)
                 (A) (A) (A) (A) (A) (A) (A) (A) (A) (A) (A) (A)
                 (A) (A) (A) (A) (A) (A) (A) (A) (A) (A) (A) (A)
                 (A) (A) (A) (A) (A) (A) (A) (A) (A) (A) (A) (A)
                 (A) (A) (A) (A) (A) (A) (A) (A) (A) (A) (A) (A)
                 (A) (A) (A) (A) (A) (A) (A) (A) (A) (A) (A) (A)
                 (A) (A) (A) (A) (A) (A) (A) (A) (A) (A) (A) (A)
                 (A) (A) (A) (A) (A) (A) (A) (A) (A) (A) (A) (A)
                 (A) (A) (A) (A) (A) (A) (A) (A) (A) (A) (A) (A)
                 (A) (A) (A) (A) (A) (A) (A) (A) (A) (A) (A) (A)
                 (A) (A) (A) (A) (A) (A) (A) (A) (A) (A) (A) (A)
                 (A) (A) (A) (A)
 The electronic state is 2-A.
 Alpha  occ. eigenvalues --  -38.45780 -38.44423 -38.44422 -38.44140 -38.44131
 Alpha  occ. eigenvalues --  -38.44108 -38.44061  -2.21564  -2.20177  -2.20170
 Alpha  occ. eigenvalues --   -2.19933  -2.19926  -2.19916  -2.19900  -1.15177
 Alpha  occ. eigenvalues --   -1.15177  -1.15177  -1.13861  -1.13848  -1.13848
 Alpha  occ. eigenvalues --   -1.13835  -1.13835  -1.13756  -1.13727  -1.13658
 Alpha  occ. eigenvalues --   -1.13625  -1.13592  -1.13588  -1.13580  -1.13572
 Alpha  occ. eigenvalues --   -1.13570  -1.13548  -1.13526  -1.13485  -1.13454
 Alpha  occ. eigenvalues --   -0.14823  -0.12810  -0.12808  -0.11826
 Alpha virt. eigenvalues --   -0.06449  -0.05906  -0.04681  -0.03035  -0.02390
 Alpha virt. eigenvalues --   -0.02266  -0.02266  -0.02107  -0.02106  -0.02106
 Alpha virt. eigenvalues --   -0.01922  -0.01209  -0.00804  -0.00741   0.00051
 Alpha virt. eigenvalues --    0.00111   0.00183   0.00485   0.00487   0.00591
 Alpha virt. eigenvalues --    0.00617   0.00725   0.00836   0.00948   0.01087
 Alpha virt. eigenvalues --    0.01300   0.01301   0.01321   0.01326   0.01326
 Alpha virt. eigenvalues --    0.01448   0.01581   0.01605   0.01746   0.01794
 Alpha virt. eigenvalues --    0.01874   0.02113   0.02134   0.02205   0.02441
 Alpha virt. eigenvalues --    0.02521   0.02537   0.02694   0.02696   0.03072
 Alpha virt. eigenvalues --    0.03198   0.03526   0.03863   0.04124   0.04510
 Alpha virt. eigenvalues --    0.04777   0.05011   0.07001   0.07092   0.07275
 Alpha virt. eigenvalues --    0.07440   0.07463   0.07463   0.07495   0.07541
 Alpha virt. eigenvalues --    0.07542   0.07632   0.07922   0.08003   0.08017
 Alpha virt. eigenvalues --    0.08690   0.08901   0.09491   0.09491   0.09513
 Alpha virt. eigenvalues --    0.09648   0.10335   0.10409   0.10507   0.11742
 Alpha virt. eigenvalues --    0.13394   0.13706   0.14385   0.15154   0.15767
 Alpha virt. eigenvalues --    0.28086   0.28191   0.29015   0.30056   0.30056
 Alpha virt. eigenvalues --    0.30671   0.31103   0.31460   0.32645   0.33219
 Alpha virt. eigenvalues --    0.33219   0.33219   0.33219   0.33219   0.33662
 Alpha virt. eigenvalues --    0.33783   0.33783   0.35011   0.35303   0.36399
 Alpha virt. eigenvalues --    0.36601   0.37203   0.37203   0.38389   0.39404
 Alpha virt. eigenvalues --    0.41932   0.41932   0.41934   0.42051   0.42515
 Alpha virt. eigenvalues --    0.42943   0.43338   0.43418   0.43606   0.43606
 Alpha virt. eigenvalues --    0.43712   0.43712   0.43791   0.43899   0.44035
 Alpha virt. eigenvalues --    0.45733   0.45848   0.45848   0.46153   0.46941
 Alpha virt. eigenvalues --    0.47383   0.47403   0.47799   0.49234   0.50563
 Alpha virt. eigenvalues --    0.52264   0.53122   0.58070   0.62541   0.68377
 Alpha virt. eigenvalues --    0.73674   1.98659   2.00451   2.04169   2.07815
 Alpha virt. eigenvalues --    2.11875   2.12654   2.18434   4.41592   4.41661
 Alpha virt. eigenvalues --    4.41808   4.42802   4.42802   4.42804   4.42924
 Alpha virt. eigenvalues --    4.43897   4.44018   4.44019   4.44259   4.44967
 Alpha virt. eigenvalues --    4.44970   4.44970   4.45495   4.46465   4.46857
 Alpha virt. eigenvalues --    4.52173   4.54308   4.60280   4.66264  96.17676
 Alpha virt. eigenvalues --   96.19186  96.23706  96.28286  96.33248  96.34843
 Alpha virt. eigenvalues --   96.41812
  Beta  occ. eigenvalues --  -38.45594 -38.44423 -38.44422 -38.44140 -38.44131
  Beta  occ. eigenvalues --  -38.44108 -38.44061  -2.21219  -2.20177  -2.20170
  Beta  occ. eigenvalues --   -2.19933  -2.19926  -2.19916  -2.19900  -1.14943
  Beta  occ. eigenvalues --   -1.14943  -1.14943  -1.13861  -1.13848  -1.13848
  Beta  occ. eigenvalues --   -1.13835  -1.13835  -1.13756  -1.13727  -1.13658
  Beta  occ. eigenvalues --   -1.13625  -1.13592  -1.13588  -1.13580  -1.13572
  Beta  occ. eigenvalues --   -1.13570  -1.13548  -1.13526  -1.13485  -1.13454
  Beta  occ. eigenvalues --   -0.14823  -0.12810  -0.11826
  Beta virt. eigenvalues --   -0.06449  -0.06228  -0.05906  -0.04681  -0.03035
  Beta virt. eigenvalues --   -0.02390  -0.02266  -0.02266  -0.01922  -0.01209
  Beta virt. eigenvalues --   -0.00804  -0.00741  -0.00092  -0.00092  -0.00092
  Beta virt. eigenvalues --    0.00051   0.00183   0.00485   0.00487   0.00591
  Beta virt. eigenvalues --    0.00617   0.00725   0.00835   0.00842   0.00950
  Beta virt. eigenvalues --    0.01087   0.01300   0.01301   0.01444   0.01579
  Beta virt. eigenvalues --    0.01604   0.01746   0.01794   0.01873   0.02101
  Beta virt. eigenvalues --    0.02134   0.02205   0.02241   0.02241   0.02251
  Beta virt. eigenvalues --    0.02447   0.02521   0.02537   0.02694   0.02696
  Beta virt. eigenvalues --    0.03072   0.03199   0.03526   0.03863   0.04124
  Beta virt. eigenvalues --    0.04511   0.04777   0.05011   0.07002   0.07092
  Beta virt. eigenvalues --    0.07276   0.07465   0.07541   0.07542   0.07632
  Beta virt. eigenvalues --    0.07922   0.08008   0.08690   0.08818   0.08818
  Beta virt. eigenvalues --    0.08824   0.08902   0.09449   0.09491   0.09491
  Beta virt. eigenvalues --    0.09514   0.09648   0.10335   0.10409   0.10507
  Beta virt. eigenvalues --    0.11742   0.13394   0.13706   0.14385   0.15154
  Beta virt. eigenvalues --    0.15767   0.28086   0.28191   0.29015   0.30056
  Beta virt. eigenvalues --    0.30056   0.30671   0.31103   0.31460   0.32645
  Beta virt. eigenvalues --    0.33662   0.33783   0.33783   0.35011   0.35303
  Beta virt. eigenvalues --    0.35316   0.35316   0.35316   0.35316   0.35316
  Beta virt. eigenvalues --    0.36399   0.36601   0.37203   0.37203   0.38389
  Beta virt. eigenvalues --    0.39404   0.42051   0.42514   0.42943   0.43338
  Beta virt. eigenvalues --    0.43417   0.43426   0.43427   0.43429   0.43606
  Beta virt. eigenvalues --    0.43606   0.43712   0.43712   0.43791   0.43899
  Beta virt. eigenvalues --    0.44035   0.45733   0.45848   0.45848   0.46153
  Beta virt. eigenvalues --    0.46941   0.47383   0.47403   0.47799   0.49234
  Beta virt. eigenvalues --    0.50563   0.52264   0.53122   0.58070   0.62541
  Beta virt. eigenvalues --    0.68377   0.73674   1.99528   2.00451   2.04169
  Beta virt. eigenvalues --    2.07815   2.11875   2.12654   2.18434   4.41592
  Beta virt. eigenvalues --    4.41661   4.41808   4.42924   4.43125   4.43125
  Beta virt. eigenvalues --    4.43126   4.43897   4.44018   4.44019   4.44259
  Beta virt. eigenvalues --    4.44967   4.44970   4.44970   4.45495   4.46465
  Beta virt. eigenvalues --    4.46857   4.52173   4.54308   4.60280   4.66264
  Beta virt. eigenvalues --   96.17945  96.19186  96.23706  96.28286  96.33248
  Beta virt. eigenvalues --   96.34843  96.41812
          Condensed to atoms (all electrons):
               1          2          3          4          5          6
     1  Na  11.000000   0.000000  -0.000000  -0.000000  -0.000000  -0.000000
     2  Na   0.000000  10.672643   0.327292  -0.000000   0.000000   0.000000
     3  Na  -0.000000   0.327292  10.672774  -0.000000   0.000000   0.000000
     4  Na  -0.000000  -0.000000  -0.000000  10.784731   0.266948  -0.183899
     5  Na  -0.000000   0.000000   0.000000   0.266948  10.890782   0.283442
     6  Na  -0.000000   0.000000   0.000000  -0.183899   0.283442  10.928459
     7  Na  -0.000000  -0.000000  -0.000000  -0.095349  -0.210972   0.235422
               7
     1  Na  -0.000000
     2  Na  -0.000000
     3  Na  -0.000000
     4  Na  -0.095349
     5  Na  -0.210972
     6  Na   0.235422
     7  Na  10.804846
          Atomic-Atomic Spin Densities.
               1          2          3          4          5          6
     1  Na   1.000000   0.000000  -0.000000  -0.000000  -0.000000  -0.000000
     2  Na   0.000000  -0.000000  -0.000000  -0.000000   0.000000   0.000000
     3  Na  -0.000000  -0.000000   0.000000   0.000000  -0.000000  -0.000000
     4  Na  -0.000000  -0.000000   0.000000  -0.000031  -0.000000   0.000011
     5  Na  -0.000000   0.000000  -0.000000  -0.000000   0.000023  -0.000003
     6  Na  -0.000000   0.000000  -0.000000   0.000011  -0.000003  -0.000006
     7  Na   0.000000  -0.000000   0.000000   0.000010  -0.000009  -0.000004
               7
     1  Na   0.000000
     2  Na  -0.000000
     3  Na   0.000000
     4  Na   0.000010
     5  Na  -0.000009
     6  Na  -0.000004
     7  Na   0.000005
 Mulliken charges and spin densities:
               1          2
     1  Na  -0.000000   1.000000
     2  Na   0.000065  -0.000000
     3  Na  -0.000065   0.000000
     4  Na   0.227570  -0.000011
     5  Na  -0.230200   0.000010
     6  Na  -0.263423  -0.000001
     7  Na   0.266053   0.000002
 Sum of Mulliken charges =  -0.00000   1.00000
 Mulliken charges and spin densities with hydrogens summed into heavy atoms:
               1          2
     1  Na  -0.000000   1.000000
     2  Na   0.000065  -0.000000
     3  Na  -0.000065   0.000000
     4  Na   0.227570  -0.000011
     5  Na  -0.230200   0.000010
     6  Na  -0.263423  -0.000001
     7  Na   0.266053   0.000002
 Electronic spatial extent (au):  <R**2>=          72037.9029
 Charge=             -0.0000 electrons
 Dipole moment (field-independent basis, Debye):
    X=              0.1796    Y=              0.2855    Z=              0.2805  Tot=              0.4387
 Quadrupole moment (field-independent basis, Debye-Ang):
   XX=            -74.0591   YY=            -67.1009   ZZ=            -69.0252
   XY=             -7.2798   XZ=             -0.4700   YZ=              4.0290
 Traceless Quadrupole moment (field-independent basis, Debye-Ang):
   XX=             -3.9973   YY=              2.9608   ZZ=              1.0365
   XY=             -7.2798   XZ=             -0.4700   YZ=              4.0290
 Octapole moment (field-independent basis, Debye-Ang**2):
  XXX=            -76.7294  YYY=            -54.4082  ZZZ=             32.8321  XYY=            118.8606
  XXY=            -83.9817  XXZ=           -100.9758  XZZ=             78.3169  YZZ=            -31.4724
  YYZ=             21.1065  XYZ=             96.0515
 Hexadecapole moment (field-independent basis, Debye-Ang**3):
 XXXX=         -78361.7344 YYYY=         -40441.7164 ZZZZ=          -1567.8388 XXXY=          -1920.6698
 XXXZ=          -1997.7445 YYYX=           1504.5232 YYYZ=            435.1975 ZZZX=           -137.1710
 ZZZY=           -221.0562 XXYY=         -18188.0360 XXZZ=         -11915.7378 YYZZ=          -6820.6772
 XXYZ=           2340.9125 YYXZ=            910.9249 ZZXY=            450.1058
 N-N= 1.440724034505D+02 E-N=-3.017080741696D+03  KE= 1.132851792068D+03
                          Isotropic Fermi Contact Couplings
        Atom                 a.u.       MegaHertz       Gauss      10(-4) cm-1
     1  Na(23)             0.79296     938.09909     334.73708     312.91617
     2  Na(23)             0.00000       0.00000       0.00000       0.00000
     3  Na(23)            -0.00000      -0.00000      -0.00000      -0.00000
     4  Na(23)            -0.00000      -0.00007      -0.00002      -0.00002
     5  Na(23)             0.00000       0.00003       0.00001       0.00001
     6  Na(23)            -0.00000      -0.00002      -0.00001      -0.00001
     7  Na(23)            -0.00000      -0.00001      -0.00000      -0.00000
 --------------------------------------------------------
       Center         ----  Spin Dipole Couplings  ----
                      3XX-RR        3YY-RR        3ZZ-RR
 --------------------------------------------------------
     1   Atom        0.000000     -0.000000      0.000000
     2   Atom        0.000003     -0.000001     -0.000002
     3   Atom        0.000004     -0.000001     -0.000003
     4   Atom       -0.000007      0.000016     -0.000009
     5   Atom       -0.000005      0.000011     -0.000006
     6   Atom       -0.000005      0.000012     -0.000006
     7   Atom       -0.000004      0.000010     -0.000006
 --------------------------------------------------------
                        XY            XZ            YZ
 --------------------------------------------------------
     1   Atom        0.000000     -0.000000     -0.000000
     2   Atom       -0.000003     -0.000000      0.000000
     3   Atom       -0.000003      0.000000     -0.000000
     4   Atom       -0.000008     -0.000001      0.000003
     5   Atom       -0.000005     -0.000000      0.000002
     6   Atom       -0.000004      0.000000     -0.000000
     7   Atom       -0.000004      0.000000     -0.000002
 --------------------------------------------------------


 ---------------------------------------------------------------------------------
              Anisotropic Spin Dipole Couplings in Principal Axis System
 ---------------------------------------------------------------------------------

       Atom             a.u.   MegaHertz   Gauss  10(-4) cm-1        Axes

              Baa    -0.0000    -0.000    -0.000    -0.000 -0.3767  0.9236  0.0705
     1 Na(23) Bbb     0.0000     0.000     0.000     0.000  0.7520  0.2605  0.6055
              Bcc     0.0000     0.000     0.000     0.000 -0.5409 -0.2811  0.7927
 
              Baa    -0.0000    -0.000    -0.000    -0.000  0.2575  0.4182  0.8711
     2 Na(23) Bbb    -0.0000    -0.000    -0.000    -0.000  0.3987  0.7752 -0.4900
              Bcc     0.0000     0.001     0.000     0.000  0.8802 -0.4735 -0.0328
 
              Baa    -0.0000    -0.000    -0.000    -0.000  0.1953  0.4506  0.8711
     3 Na(23) Bbb    -0.0000    -0.000    -0.000    -0.000  0.3853  0.7815 -0.4907
              Bcc     0.0000     0.001     0.000     0.000  0.9019 -0.4315  0.0210
 
              Baa    -0.0000    -0.001    -0.000    -0.000  0.8889  0.2359  0.3927
     4 Na(23) Bbb    -0.0000    -0.001    -0.000    -0.000 -0.3478 -0.2104  0.9136
              Bcc     0.0000     0.003     0.001     0.001 -0.2982  0.9487  0.1050
 
              Baa    -0.0000    -0.001    -0.000    -0.000  0.7421  0.2723 -0.6124
     5 Na(23) Bbb    -0.0000    -0.001    -0.000    -0.000  0.6067  0.1154  0.7865
              Bcc     0.0000     0.002     0.001     0.001 -0.2848  0.9553  0.0796
 
              Baa    -0.0000    -0.001    -0.000    -0.000  0.9648  0.2127 -0.1544
     6 Na(23) Bbb    -0.0000    -0.001    -0.000    -0.000  0.1475  0.0480  0.9879
              Bcc     0.0000     0.002     0.001     0.001 -0.2176  0.9759 -0.0149
 
              Baa    -0.0000    -0.001    -0.000    -0.000  0.5159  0.2272  0.8259
     7 Na(23) Bbb    -0.0000    -0.001    -0.000    -0.000  0.8120  0.1776 -0.5560
              Bcc     0.0000     0.002     0.001     0.001 -0.2730  0.9575 -0.0929
 

 ---------------------------------------------------------------------------------

 No NMR shielding tensors so no spin-rotation constants.
 Leave Link  601 at Tue Nov 21 11:46:52 2023, MaxMem=   104857600 cpu:              18.4 elap:              20.3
 (Enter /home/sekinelabo/g16/l701.exe)
 ... and contract with generalized density number  0.
 Compute integral first derivatives.
 Leave Link  701 at Tue Nov 21 11:47:01 2023, MaxMem=   104857600 cpu:               7.8 elap:               8.9
 (Enter /home/sekinelabo/g16/l702.exe)
 L702 exits ... SP integral derivatives will be done elsewhere.
 Leave Link  702 at Tue Nov 21 11:47:02 2023, MaxMem=   104857600 cpu:               0.7 elap:               1.0
 (Enter /home/sekinelabo/g16/l703.exe)
 Integral derivatives from FoFJK, PRISM(SPDF).
 Compute integral first derivatives, UseDBF=F ICtDFT=           0.
 Calling FoFJK, ICntrl=      2127 FMM=F ISym2X=0 I1Cent= 0 IOpClX= 1 NMat=1 NMatS=1 NMatT=0.
 FoFJK:  IHMeth= 1 ICntrl=    2127 DoSepK=F KAlg= 0 I1Cent=           0 FoldK=F
 IRaf=         0 NMat=       1 IRICut=       1 DoRegI=T DoRafI=F ISym2E= 0 IDoP0=0 IntGTp=1.
 FoFCou: FMM=F IPFlag=           0 FMFlag=      100000 FMFlg1=         800
         NFxFlg=           0 DoJE=F BraDBF=F KetDBF=F FulRan=T
         wScrn=  0.000000 ICntrl=      2127 IOpCl=  1 I1Cent=           0 NGrid=           0
         NMat0=    1 NMatS0=      1 NMatT0=    0 NMatD0=    1 NMtDS0=    0 NMtDT0=    0
 Symmetry not used in FoFCou.
 Leave Link  703 at Tue Nov 21 11:47:30 2023, MaxMem=   104857600 cpu:              24.7 elap:              27.0
 (Enter /home/sekinelabo/g16/l716.exe)
 Dipole        = 7.06718142D-02 1.12336642D-01 1.10339178D-01
 ***** Axes restored to original set *****
 -------------------------------------------------------------------
 Center     Atomic                   Forces (Hartrees/Bohr)
 Number     Number              X              Y              Z
 -------------------------------------------------------------------
      1       11          -0.000000001   -0.000000013   -0.000000001
      2       11          -0.001872073    0.003865719    0.000392987
      3       11           0.001872060   -0.003865706   -0.000392982
      4       11          -0.000048377   -0.000987693   -0.000549071
      5       11           0.001267897    0.000842396    0.001216997
      6       11           0.000363272    0.001042796   -0.002192001
      7       11          -0.001582778   -0.000897498    0.001524070
 -------------------------------------------------------------------
 Cartesian Forces:  Max     0.003865719 RMS     0.001602691
 Z-matrix is all fixed cartesians, so copy forces.
 Force constants in Cartesian coordinates: 
                1             2             3             4             5 
      1  0.100000D+01
      2  0.000000D+00  0.100000D+01
      3  0.000000D+00  0.000000D+00  0.100000D+01
      4  0.000000D+00  0.000000D+00  0.000000D+00  0.445069D-02
      5  0.000000D+00  0.000000D+00  0.000000D+00 -0.918909D-02  0.189722D-01
      6  0.000000D+00  0.000000D+00  0.000000D+00 -0.935118D-03  0.193069D-02
      7  0.000000D+00  0.000000D+00  0.000000D+00 -0.445069D-02  0.918909D-02
      8  0.000000D+00  0.000000D+00  0.000000D+00  0.918909D-02 -0.189722D-01
      9  0.000000D+00  0.000000D+00  0.000000D+00  0.935118D-03 -0.193069D-02
     10  0.000000D+00  0.000000D+00  0.000000D+00  0.000000D+00  0.000000D+00
     11  0.000000D+00  0.000000D+00  0.000000D+00  0.000000D+00  0.000000D+00
     12  0.000000D+00  0.000000D+00  0.000000D+00  0.000000D+00  0.000000D+00
     13  0.000000D+00  0.000000D+00  0.000000D+00  0.000000D+00  0.000000D+00
     14  0.000000D+00  0.000000D+00  0.000000D+00  0.000000D+00  0.000000D+00
     15  0.000000D+00  0.000000D+00  0.000000D+00  0.000000D+00  0.000000D+00
     16  0.000000D+00  0.000000D+00  0.000000D+00  0.000000D+00  0.000000D+00
     17  0.000000D+00  0.000000D+00  0.000000D+00  0.000000D+00  0.000000D+00
     18  0.000000D+00  0.000000D+00  0.000000D+00  0.000000D+00  0.000000D+00
     19  0.000000D+00  0.000000D+00  0.000000D+00  0.000000D+00  0.000000D+00
     20  0.000000D+00  0.000000D+00  0.000000D+00  0.000000D+00  0.000000D+00
     21  0.000000D+00  0.000000D+00  0.000000D+00  0.000000D+00  0.000000D+00
                6             7             8             9            10 
      6  0.196475D-03
      7  0.935118D-03  0.445069D-02
      8 -0.193069D-02 -0.918909D-02  0.189722D-01
      9 -0.196475D-03 -0.935118D-03  0.193069D-02  0.196475D-03
     10  0.000000D+00  0.000000D+00  0.000000D+00  0.000000D+00  0.884469D-02
     11  0.000000D+00  0.000000D+00  0.000000D+00  0.000000D+00  0.786082D-02
     12  0.000000D+00  0.000000D+00  0.000000D+00  0.000000D+00  0.303952D-02
     13  0.000000D+00  0.000000D+00  0.000000D+00  0.000000D+00 -0.838087D-02
     14  0.000000D+00  0.000000D+00  0.000000D+00  0.000000D+00 -0.237690D-02
     15  0.000000D+00  0.000000D+00  0.000000D+00  0.000000D+00 -0.343883D-02
     16  0.000000D+00  0.000000D+00  0.000000D+00  0.000000D+00 -0.464451D-03
     17  0.000000D+00  0.000000D+00  0.000000D+00  0.000000D+00 -0.545348D-02
     18  0.000000D+00  0.000000D+00  0.000000D+00  0.000000D+00  0.404186D-03
     19  0.000000D+00  0.000000D+00  0.000000D+00  0.000000D+00  0.000000D+00
     20  0.000000D+00  0.000000D+00  0.000000D+00  0.000000D+00 -0.304475D-04
     21  0.000000D+00  0.000000D+00  0.000000D+00  0.000000D+00 -0.487658D-05
               11            12            13            14            15 
     11  0.265018D-01
     12  0.555599D-03  0.136726D-02
     13 -0.805540D-02 -0.280187D-02  0.269157D-01
     14 -0.287973D-01  0.217198D-02  0.255214D-02  0.373515D-01
     15 -0.387508D-03 -0.158126D-02  0.898001D-02 -0.404975D-02  0.104417D-01
     16  0.194733D-03 -0.236236D-03 -0.164481D-01  0.592855D-03 -0.100657D-01
     17  0.228786D-02 -0.279575D-02  0.519503D-02 -0.866614D-02  0.510573D-02
     18 -0.169312D-03  0.203082D-03 -0.423050D-02  0.259494D-02 -0.130834D-01
     19  0.000000D+00 -0.141995D-05 -0.208673D-02 -0.768097D-03  0.452452D-02
     20  0.762274D-05  0.681665D-04  0.308223D-03  0.111924D-03 -0.668476D-03
     21  0.122088D-05  0.109178D-04 -0.194764D-02 -0.717176D-03  0.422291D-02
               16            17            18            19            20 
     16  0.367697D-01
     17  0.229615D-02  0.727256D-02
     18 -0.632656D-02 -0.699523D-02  0.400687D-01
     19 -0.198572D-01 -0.203771D-02  0.101529D-01  0.219433D-01
     20 -0.308374D-02 -0.894279D-03  0.456960D-02  0.280596D-02  0.774733D-03
     21  0.166285D-01  0.468525D-02 -0.271884D-01 -0.146760D-01 -0.396929D-02
               21 
     21  0.229546D-01
 Leave Link  716 at Tue Nov 21 11:47:31 2023, MaxMem=   104857600 cpu:               0.8 elap:               0.9
 (Enter /home/sekinelabo/g16/l103.exe)

 GradGradGradGradGradGradGradGradGradGradGradGradGradGradGradGradGradGrad
 Berny optimization.
 Search for a local minimum.
 Step number   1 out of a maximum of    2
 All quantities printed in internal units (Hartrees-Bohrs-Radians)
 Second derivative matrix not updated -- first step.
 ITU=  0
     Eigenvalues ---   -0.00000  -0.00000   0.00000   0.00000   0.00000
     Eigenvalues ---    0.00030   0.01385   0.02482   0.04361   0.04724
     Eigenvalues ---    0.05682   0.06416   0.08127   0.51987   0.85714
 Eigenvalue     1 is  -5.55D-16 should be greater than     0.000000 Eigenvector:
                          X2        Z2        X3        Y3        Y2
   1                    0.53750   0.52787  -0.44619  -0.21956   0.19272
                          Z4        Y7        Z5        Y4        Z3
   1                   -0.17206   0.16600  -0.15410  -0.13483  -0.10259
 Eigenvalue     2 is  -1.11D-16 should be greater than     0.000000 Eigenvector:
                          Z4        Z2        Z3        Y6        Y7
   1                    0.46233   0.44977  -0.39197   0.32254  -0.31066
                          Z5        X3        Y3        X2        Y2
   1                   -0.29850   0.22257   0.14738  -0.14568  -0.11664
 Eigenvalue     3 is   4.44D-16 Eigenvector:
                          Z2        Z4        X3        Y6        Z7
   1                    0.56399  -0.45153   0.33065  -0.31892  -0.21840
                          Y4        Y2        Z3        X2        X4
   1                    0.20337  -0.16429   0.16404  -0.16216  -0.16051
 Eigenvalue     4 is   4.44D-16 Eigenvector:
                          Z3        Z7        Z6        Z5        Z4
   1                    0.74490  -0.39092  -0.28364  -0.22636   0.21489
                          Y6        Y4        X2        Y2        X7
   1                    0.17966  -0.13714   0.11605   0.10680  -0.09434
 Eigenvalue     5 is   8.88D-16 Eigenvector:
                          Z5        Z7        Z4        Z3        X6
   1                    0.55303  -0.51458   0.38489  -0.25723   0.24065
                          X7        Y6        Y7        X2        Z6
   1                   -0.22272  -0.16442   0.16111   0.15399  -0.12841
 Quadratic step=3.991D+00 exceeds max=3.000D-01 adjusted using Lamda=-4.073D-03.
 Angle between NR and scaled steps=  24.12 degrees.
 Angle between quadratic step and forces=  55.12 degrees.
 Linear search not attempted -- first point.
 B after Tr=     0.000000    0.000000   -0.000000
         Rot=    1.000000   -0.000000   -0.000000    0.000000 Ang=   0.00 deg.
 Variable       Old X    -DE/DX   Delta X   Delta X   Delta X     New X
                                 (Linear)    (Quad)   (Total)
    X1       18.01053  -0.00000   0.00000  -0.00000  -0.00000  18.01053
    Y1       56.61525  -0.00000   0.00000   0.00000   0.00000  56.61525
    Z1        3.15522  -0.00000   0.00000   0.00000   0.00000   3.15522
    X2       20.04943  -0.00187   0.00000  -0.03644  -0.03644  20.01299
    Y2        3.91360   0.00387   0.00000   0.07537   0.07537   3.98897
    Z2       55.89319   0.00039   0.00000   0.00757   0.00757  55.90076
    X3       17.33410   0.00187   0.00000   0.03641   0.03641  17.37051
    Y3        9.51980  -0.00387   0.00000  -0.07538  -0.07538   9.44441
    Z3       56.46369  -0.00039   0.00000  -0.00757  -0.00757  56.45613
    X4       12.57008  -0.00005   0.00000   0.11009   0.11009  12.68017
    Y4        9.42359  -0.00099   0.00000  -0.02297  -0.02297   9.40062
    Z4        4.26330  -0.00055   0.00000  -0.09426  -0.09426   4.16904
    X5       10.42046   0.00127   0.00000  -0.00996  -0.00996  10.41050
    Y5        3.88339   0.00084   0.00000   0.04839   0.04839   3.93178
    Z5        3.92267   0.00122   0.00000   0.10578   0.10578   4.02846
    X6        4.61331   0.00036   0.00000  -0.01544  -0.01544   4.59787
    Y6        4.18323   0.00104   0.00000   0.11456   0.11456   4.29779
    Z6        1.29530  -0.00219   0.00000   0.01240   0.01240   1.30770
    X7        0.73387  -0.00158   0.00000  -0.08466  -0.08466   0.64921
    Y7        3.45516  -0.00090   0.00000  -0.13996  -0.13996   3.31520
    Z7        5.33657   0.00152   0.00000  -0.02393  -0.02393   5.31264
         Item               Value     Threshold  Converged?
 Maximum Force            0.003866     0.000450     NO 
 RMS     Force            0.001603     0.000300     NO 
 Maximum Displacement     0.139959     0.001800     NO 
 RMS     Displacement     0.065515     0.001200     NO 
 Predicted change in Energy=-8.140304D-04
 GradGradGradGradGradGradGradGradGradGradGradGradGradGradGradGradGradGrad

 Leave Link  103 at Tue Nov 21 11:47:34 2023, MaxMem=   104857600 cpu:               2.8 elap:               2.7
 (Enter /home/sekinelabo/g16/l9999.exe)
 1\1\GINC-SEKINELABO-XA7R-R37\Force\UB3LYP\6-311+G(d)\Na7(2)\SEKINELABO
 \21-Nov-2023\0\\#P B3LYP/6-311+g(d) force\\DPGEN\\0,2\Na,9.53076,29.95
 95,1.66967\Na,10.6097,2.07099,29.5774\Na,9.17281,5.03766,29.8793\Na,6.
 6518,4.98675,2.25604\Na,5.51427,2.055,2.07579\Na,2.44126,2.21367,0.685
 443\Na,0.388346,1.82839,2.82399\\Version=ES64L-G16RevB.01\State=2-A\HF
 =-1136.0903232\S2=0.750009\S2-1=0.\S2A=0.75\RMSD=9.157e-09\RMSF=1.603e
 -03\Dipole=-0.0647465,0.1079939,0.1180423\Quadrupole=-1.0606621,5.9196
 205,-4.8589584,-2.3471176,-2.2118782,-2.2879055\PG=C01 [X(Na7)]\\@


 I MET A TRAVELLER FROM AN ANTIQUE LAND
 WHO SAID... TWO VAST AND TRUNKLESS LEGS OF STONE
 STAND IN THE DESERT..... NEAR THEM,  ON THE SAND,
 HALF SUNK,  A SHATTERED VISAGE LIES,  WHOSE FROWN,
 AND WRINKLED LIP,  AND SNEER OF COLD COMMAND
 TELL THAT ITS SCULPTOR WELL THOSE PASSIONS READ
 WHICH YET SURVIVE,  STAMPED ON THESE LIFELESS THINGS
 THE HAND THAT MOCKED THEM,  AND THE HEART THAT FED-
 AND ON THE PEDESTAL THESE WORDS APPEAR 
 MY NAME IS OZYMANDIAS, KING OF KINGS--   
 LOOK ON MY WORKS YE MIGHTY AND DESPAIR. 
 NOTHING BESIDE REMAINS,  ROUND THE DECAY 
 OF THAT COLOSSAL WRECK,  BOUNDLESS AND BARE
 THE LONE AND LEVEL SANDS STRETCH FAR AWAY.
                                    SHELLEY
 Job cpu time:       0 days  0 hours  6 minutes 43.9 seconds.
 Elapsed time:       0 days  0 hours  7 minutes 16.0 seconds.
 File lengths (MBytes):  RWF=     46 Int=      0 D2E=      0 Chk=      4 Scr=      1
 Normal termination of Gaussian 16 at Tue Nov 21 11:47:34 2023.
