 Entering Gaussian System, Link 0=g16
 Initial command:
 /home/sekinelabo/g16/l1.exe "/home/sekinelabo/g16temp/Gau-934131.inp" -scrdir="/home/sekinelabo/g16temp/"
 Entering Link 1 = /home/sekinelabo/g16/l1.exe PID=    934161.
  
 Copyright (c) 1988-2017, Gaussian, Inc.  All Rights Reserved.
  
 This is part of the Gaussian(R) 16 program.  It is based on
 the Gaussian(R) 09 system (copyright 2009, Gaussian, Inc.),
 the Gaussian(R) 03 system (copyright 2003, Gaussian, Inc.),
 the Gaussian(R) 98 system (copyright 1998, Gaussian, Inc.),
 the Gaussian(R) 94 system (copyright 1995, Gaussian, Inc.),
 the Gaussian 92(TM) system (copyright 1992, Gaussian, Inc.),
 the Gaussian 90(TM) system (copyright 1990, Gaussian, Inc.),
 the Gaussian 88(TM) system (copyright 1988, Gaussian, Inc.),
 the Gaussian 86(TM) system (copyright 1986, Carnegie Mellon
 University), and the Gaussian 82(TM) system (copyright 1983,
 Carnegie Mellon University). Gaussian is a federally registered
 trademark of Gaussian, Inc.
  
 This software contains proprietary and confidential information,
 including trade secrets, belonging to Gaussian, Inc.
  
 This software is provided under written license and may be
 used, copied, transmitted, or stored only in accord with that
 written license.
  
 The following legend is applicable only to US Government
 contracts under FAR:
  
                    RESTRICTED RIGHTS LEGEND
  
 Use, reproduction and disclosure by the US Government is
 subject to restrictions as set forth in subparagraphs (a)
 and (c) of the Commercial Computer Software - Restricted
 Rights clause in FAR 52.227-19.
  
 Gaussian, Inc.
 340 Quinnipiac St., Bldg. 40, Wallingford CT 06492
  
  
 ---------------------------------------------------------------
 Warning -- This program may not be used in any manner that
 competes with the business of Gaussian, Inc. or will provide
 assistance to any competitor of Gaussian, Inc.  The licensee
 of this program is prohibited from giving any competitor of
 Gaussian, Inc. access to this program.  By using this program,
 the user acknowledges that Gaussian, Inc. is engaged in the
 business of creating and licensing software in the field of
 computational chemistry and represents and warrants to the
 licensee that it is not a competitor of Gaussian, Inc. and that
 it will not use this program in any manner prohibited above.
 ---------------------------------------------------------------
  

 Cite this work as:
 Gaussian 16, Revision B.01,
 M. J. Frisch, G. W. Trucks, H. B. Schlegel, G. E. Scuseria, 
 M. A. Robb, J. R. Cheeseman, G. Scalmani, V. Barone, 
 G. A. Petersson, H. Nakatsuji, X. Li, M. Caricato, A. V. Marenich, 
 J. Bloino, B. G. Janesko, R. Gomperts, B. Mennucci, H. P. Hratchian, 
 J. V. Ortiz, A. F. Izmaylov, J. L. Sonnenberg, D. Williams-Young, 
 F. Ding, F. Lipparini, F. Egidi, J. Goings, B. Peng, A. Petrone, 
 T. Henderson, D. Ranasinghe, V. G. Zakrzewski, J. Gao, N. Rega, 
 G. Zheng, W. Liang, M. Hada, M. Ehara, K. Toyota, R. Fukuda, 
 J. Hasegawa, M. Ishida, T. Nakajima, Y. Honda, O. Kitao, H. Nakai, 
 T. Vreven, K. Throssell, J. A. Montgomery, Jr., J. E. Peralta, 
 F. Ogliaro, M. J. Bearpark, J. J. Heyd, E. N. Brothers, K. N. Kudin, 
 V. N. Staroverov, T. A. Keith, R. Kobayashi, J. Normand, 
 K. Raghavachari, A. P. Rendell, J. C. Burant, S. S. Iyengar, 
 J. Tomasi, M. Cossi, J. M. Millam, M. Klene, C. Adamo, R. Cammi, 
 J. W. Ochterski, R. L. Martin, K. Morokuma, O. Farkas, 
 J. B. Foresman, and D. J. Fox, Gaussian, Inc., Wallingford CT, 2016.
 
 ******************************************
 Gaussian 16:  ES64L-G16RevB.01 20-Dec-2017
                21-Nov-2023 
 ******************************************
 %nprocshared=14
 Will use up to   14 processors via shared memory.
 -------------------------
 #P B3LYP/6-311+g(d) force
 -------------------------
 1/10=7,30=1,38=1/1,3;
 2/12=2,17=6,18=5,40=1/2;
 3/5=4,6=6,7=11,11=2,25=1,30=1,71=1,74=-5/1,2,3;
 4//1;
 5/5=2,38=5/2;
 6/7=2,8=2,9=2,10=2,28=1/1;
 7/29=1/1,2,3,16;
 1/10=7,30=1/3;
 99//99;
 Leave Link    1 at Tue Nov 21 11:40:17 2023, MaxMem=           0 cpu:               0.5 elap:               0.4
 (Enter /home/sekinelabo/g16/l101.exe)
 -----
 DPGEN
 -----
 Symbolic Z-matrix:
 Charge =  0 Multiplicity = 2
 Na                    8.69767   29.6898   29.3259 
 Na                    10.6201   2.26143   29.2694 
 Na                    9.78481   5.57929   29.1448 
 Na                    7.16662   5.39542   1.07772 
 Na                    5.27512   3.29151   2.19307 
 Na                    3.04415   1.33414   3.75922 
 Na                    29.7205   0.6004    4.19753 
 
 ITRead=  0  0  0  0  0  0  0
 MicOpt= -1 -1 -1 -1 -1 -1 -1
 NAtoms=      7 NQM=        7 NQMF=       0 NMMI=      0 NMMIF=      0
                NMic=       0 NMicF=      0.
                    Isotopes and Nuclear Properties:
 (Nuclear quadrupole moments (NQMom) in fm**2, nuclear magnetic moments (NMagM)
  in nuclear magnetons)

  Atom         1           2           3           4           5           6           7
 IAtWgt=          23          23          23          23          23          23          23
 AtmWgt=  22.9897697  22.9897697  22.9897697  22.9897697  22.9897697  22.9897697  22.9897697
 NucSpn=           3           3           3           3           3           3           3
 AtZEff=  -0.0000000  -0.0000000  -0.0000000  -0.0000000  -0.0000000  -0.0000000  -0.0000000
 NQMom=   10.4000000  10.4000000  10.4000000  10.4000000  10.4000000  10.4000000  10.4000000
 NMagM=    2.2175200   2.2175200   2.2175200   2.2175200   2.2175200   2.2175200   2.2175200
 AtZNuc=  11.0000000  11.0000000  11.0000000  11.0000000  11.0000000  11.0000000  11.0000000
 Leave Link  101 at Tue Nov 21 11:40:20 2023, MaxMem=   104857600 cpu:               2.5 elap:               2.7
 (Enter /home/sekinelabo/g16/l103.exe)

 GradGradGradGradGradGradGradGradGradGradGradGradGradGradGradGradGradGrad
 Berny optimization.
 Initialization pass.
 Trust Radius=3.00D-01 FncErr=1.00D-07 GrdErr=1.00D-07 EigMax=2.50D+02 EigMin=1.00D-04
 Number of steps in this run=      2 maximum allowed number of steps=      2.
 GradGradGradGradGradGradGradGradGradGradGradGradGradGradGradGradGradGrad

 Leave Link  103 at Tue Nov 21 11:40:20 2023, MaxMem=   104857600 cpu:               0.5 elap:               0.4
 (Enter /home/sekinelabo/g16/l202.exe)
                          Input orientation:                          
 ---------------------------------------------------------------------
 Center     Atomic      Atomic             Coordinates (Angstroms)
 Number     Number       Type             X           Y           Z
 ---------------------------------------------------------------------
      1         11           0        8.697670   29.689800   29.325900
      2         11           0       10.620100    2.261430   29.269400
      3         11           0        9.784810    5.579290   29.144800
      4         11           0        7.166620    5.395420    1.077720
      5         11           0        5.275120    3.291510    2.193070
      6         11           0        3.044150    1.334140    3.759220
      7         11           0       29.720500    0.600395    4.197530
 ---------------------------------------------------------------------
                    Distance matrix (angstroms):
                    1          2          3          4          5
     1  Na   0.000000
     2  Na  27.495716   0.000000
     3  Na  24.135687   3.423657   0.000000
     4  Na  37.289686  28.574801  28.189532   0.000000
     5  Na  38.010183  27.618065  27.422017   3.041088   0.000000
     6  Na  38.596125  26.627508  26.606117   6.378024   3.355794
     7  Na  43.813101  31.562367  32.320078  23.268068  24.674614
                    6          7
     6  Na   0.000000
     7  Na  26.690038   0.000000
 Stoichiometry    Na7(2)
 Framework group  C1[X(Na7)]
 Deg. of freedom    15
 Full point group                 C1      NOp   1
 Largest Abelian subgroup         C1      NOp   1
 Largest concise Abelian subgroup C1      NOp   1
                         Standard orientation:                         
 ---------------------------------------------------------------------
 Center     Atomic      Atomic             Coordinates (Angstroms)
 Number     Number       Type             X           Y           Z
 ---------------------------------------------------------------------
      1         11           0       24.345129   -6.377976   11.014483
      2         11           0       11.018750    6.626279   -9.216962
      3         11           0       12.567775    4.496949   -7.028834
      4         11           0      -11.828572   -6.396572    1.960000
      5         11           0      -11.696496   -6.794223   -1.052083
      6         11           0      -11.071091   -7.402701   -4.292450
      7         11           0      -13.335496   15.848245    8.615847
 ---------------------------------------------------------------------
 Rotational constants (GHZ):           0.0258276           0.0121960           0.0112904
 Leave Link  202 at Tue Nov 21 11:40:21 2023, MaxMem=   104857600 cpu:               0.8 elap:               0.8
 (Enter /home/sekinelabo/g16/l301.exe)
 Standard basis: 6-311+G(d) (5D, 7F)
 Ernie: Thresh=  0.10000D-02 Tol=  0.10000D-05 Strict=F.
 There are   217 symmetry adapted cartesian basis functions of A   symmetry.
 There are   210 symmetry adapted basis functions of A   symmetry.
   210 basis functions,   350 primitive gaussians,   217 cartesian basis functions
    39 alpha electrons       38 beta electrons
       nuclear repulsion energy       106.1136918166 Hartrees.
 IExCor=  402 DFT=T Ex+Corr=B3LYP ExCW=0 ScaHFX=  0.200000
 ScaDFX=  0.800000  0.720000  1.000000  0.810000 ScalE2=  1.000000  1.000000
 IRadAn=      5 IRanWt=     -1 IRanGd=            0 ICorTp=0 IEmpDi=  4
 NAtoms=    7 NActive=    7 NUniq=    7 SFac= 1.00D+00 NAtFMM=   60 NAOKFM=F Big=F
 Integral buffers will be    131072 words long.
 Raffenetti 2 integral format.
 Two-electron integral symmetry is turned on.
 Leave Link  301 at Tue Nov 21 11:40:22 2023, MaxMem=   104857600 cpu:               0.8 elap:               0.9
 (Enter /home/sekinelabo/g16/l302.exe)
 NPDir=0 NMtPBC=     1 NCelOv=     1 NCel=       1 NClECP=     1 NCelD=      1
         NCelK=      1 NCelE2=     1 NClLst=     1 CellRange=     0.0.
 One-electron integrals computed using PRISM.
 One-electron integral symmetry used in STVInt
 NBasis=   210 RedAO= T EigKep=  4.72D-06  NBF=   210
 NBsUse=   210 1.00D-06 EigRej= -1.00D+00 NBFU=   210
 Precomputing XC quadrature grid using
 IXCGrd= 4 IRadAn=           5 IRanWt=          -1 IRanGd=           0 AccXCQ= 0.00D+00.
 Generated NRdTot=       0 NPtTot=           0 NUsed=           0 NTot=          32
 NSgBfM=   155   155   155   155   155 MxSgAt=     7 MxSgA2=     7.
 Leave Link  302 at Tue Nov 21 11:40:55 2023, MaxMem=   104857600 cpu:              29.8 elap:              32.9
 (Enter /home/sekinelabo/g16/l303.exe)
 DipDrv:  MaxL=1.
 Leave Link  303 at Tue Nov 21 11:40:58 2023, MaxMem=   104857600 cpu:               2.4 elap:               2.5
 (Enter /home/sekinelabo/g16/l401.exe)
 ExpMin= 7.60D-03 ExpMax= 3.62D+04 ExpMxC= 1.21D+03 IAcc=3 IRadAn=         5 AccDes= 0.00D+00
 Harris functional with IExCor=  402 and IRadAn=       5 diagonalized for initial guess.
 HarFok:  IExCor=  402 AccDes= 0.00D+00 IRadAn=         5 IDoV= 1 UseB2=F ITyADJ=14
 ICtDFT=  3500011 ScaDFX=  1.000000  1.000000  1.000000  1.000000
 FoFCou: FMM=F IPFlag=           0 FMFlag=      100000 FMFlg1=           0
         NFxFlg=           0 DoJE=T BraDBF=F KetDBF=T FulRan=T
         wScrn=  0.000000 ICntrl=       500 IOpCl=  0 I1Cent=   200000004 NGrid=           0
         NMat0=    1 NMatS0=      1 NMatT0=    0 NMatD0=    1 NMtDS0=    0 NMtDT0=    0
 Petite list used in FoFCou.
 Harris En= -1135.83418654073    
 JPrj=0 DoOrth=F DoCkMO=F.
 Initial guess <Sx>= 0.0000 <Sy>= 0.0000 <Sz>= 0.5000 <S**2>= 0.7500 S= 0.5000
 Leave Link  401 at Tue Nov 21 11:41:16 2023, MaxMem=   104857600 cpu:              16.5 elap:              17.8
 (Enter /home/sekinelabo/g16/l502.exe)
 Integral symmetry usage will be decided dynamically.
 UHF open shell SCF:
 Using DIIS extrapolation, IDIIS=  1040.
 NGot=   104857600 LenX=   104758426 LenY=   104710896
 Requested convergence on RMS density matrix=1.00D-08 within 128 cycles.
 Requested convergence on MAX density matrix=1.00D-06.
 Requested convergence on             energy=1.00D-06.
 No special actions if energy rises.
 Fock matrices will be formed incrementally for  20 cycles.

 Cycle   1  Pass 1  IDiag  1:
 FoFJK:  IHMeth= 1 ICntrl=       0 DoSepK=F KAlg= 0 I1Cent=           0 FoldK=F
 IRaf= 420000000 NMat=       1 IRICut=       1 DoRegI=T DoRafI=F ISym2E= 0 IDoP0=0 IntGTp=1.
 FoFCou: FMM=F IPFlag=           0 FMFlag=      100000 FMFlg1=           0
         NFxFlg=           0 DoJE=F BraDBF=F KetDBF=F FulRan=T
         wScrn=  0.000000 ICntrl=         0 IOpCl=  1 I1Cent=           0 NGrid=           0
         NMat0=    1 NMatS0=      1 NMatT0=    0 NMatD0=    1 NMtDS0=    0 NMtDT0=    0
 Symmetry not used in FoFCou.
 E= -1135.87889110948    
 DIIS: error= 2.06D-02 at cycle   1 NSaved=   1.
 NSaved= 1 IEnMin= 1 EnMin= -1135.87889110948     IErMin= 1 ErrMin= 2.06D-02
 ErrMax= 2.06D-02  0.00D+00 EMaxC= 1.00D-01 BMatC= 1.93D-01 BMatP= 1.93D-01
 IDIUse=3 WtCom= 7.94D-01 WtEn= 2.06D-01
 Coeff-Com:  0.100D+01
 Coeff-En:   0.100D+01
 Coeff:      0.100D+01
 Gap=    -0.120 Goal=   None    Shift=    0.000
 Gap=    -0.082 Goal=   None    Shift=    0.000
 GapD=   -0.120 DampG=0.250 DampE=0.500 DampFc=0.2500 IDamp=-1.
 Damping current iteration by 2.50D-01
 RMSDP=1.68D-02 MaxDP=1.40D+00              OVMax= 1.00D+00

 Cycle   2  Pass 1  IDiag  1:
 RMSU=  3.60D-03    CP:  9.10D-01
 E= -1135.79936388549     Delta-E=        0.079527223989 Rises=F Damp=T
 DIIS: error= 1.47D-02 at cycle   2 NSaved=   2.
 NSaved= 2 IEnMin= 1 EnMin= -1135.87889110948     IErMin= 2 ErrMin= 1.47D-02
 ErrMax= 1.47D-02  0.00D+00 EMaxC= 1.00D-01 BMatC= 7.86D-02 BMatP= 1.93D-01
 IDIUse=3 WtCom= 8.53D-01 WtEn= 1.47D-01
 Coeff-Com: -0.507D+00 0.151D+01
 Coeff-En:   0.620D+00 0.380D+00
 Coeff:     -0.341D+00 0.134D+01
 Gap=    -0.380 Goal=   None    Shift=    0.000
 Gap=     0.019 Goal=   None    Shift=    0.000
 RMSDP=7.09D-03 MaxDP=5.49D-01 DE= 7.95D-02 OVMax= 1.00D+00

 Cycle   3  Pass 1  IDiag  1:
 RMSU=  2.90D-03    CP:  1.07D+00 -4.51D-01
 E= -1135.87442193573     Delta-E=       -0.075058050248 Rises=F Damp=F
 DIIS: error= 1.27D-02 at cycle   3 NSaved=   3.
 NSaved= 3 IEnMin= 1 EnMin= -1135.87889110948     IErMin= 3 ErrMin= 1.27D-02
 ErrMax= 1.27D-02  0.00D+00 EMaxC= 1.00D-01 BMatC= 7.82D-02 BMatP= 7.86D-02
 IDIUse=3 WtCom= 8.73D-01 WtEn= 1.27D-01
 EnCoef did    35 forward-backward iterations
 Coeff-Com: -0.372D+00 0.899D+00 0.473D+00
 Coeff-En:   0.138D+00 0.387D+00 0.475D+00
 Coeff:     -0.308D+00 0.834D+00 0.473D+00
 Gap=    -0.022 Goal=   None    Shift=    0.000
 Gap=    -0.022 Goal=   None    Shift=    0.000
 RMSDP=1.59D-02 MaxDP=1.28D+00 DE=-7.51D-02 OVMax= 1.00D+00

 Cycle   4  Pass 1  IDiag  1:
 RMSU=  8.59D-03    CP:  7.04D-01  1.99D+00 -7.83D-01
 E= -1135.58433168479     Delta-E=        0.290090250944 Rises=F Damp=F
 DIIS: error= 1.68D-02 at cycle   4 NSaved=   4.
 NSaved= 4 IEnMin= 1 EnMin= -1135.87889110948     IErMin= 3 ErrMin= 1.27D-02
 ErrMax= 1.68D-02  0.00D+00 EMaxC= 1.00D-01 BMatC= 4.26D-02 BMatP= 7.82D-02
 IDIUse=3 WtCom= 8.32D-01 WtEn= 1.68D-01
 EnCoef did    39 forward-backward iterations
 Coeff-Com: -0.296D+00 0.687D+00 0.326D+00 0.282D+00
 Coeff-En:   0.141D+00 0.354D+00 0.367D+00 0.139D+00
 Coeff:     -0.223D+00 0.631D+00 0.333D+00 0.258D+00
 Gap=    -0.086 Goal=   None    Shift=    0.000
 Gap=    -0.059 Goal=   None    Shift=    0.000
 RMSDP=9.79D-03 MaxDP=6.04D-01 DE= 2.90D-01 OVMax= 1.00D+00

 Cycle   5  Pass 1  IDiag  1:
 RMSU=  3.98D-03    CP:  8.73D-01  8.51D-01 -3.22D-01  2.20D-01
 E= -1135.70384974511     Delta-E=       -0.119518060322 Rises=F Damp=F
 DIIS: error= 1.23D-02 at cycle   5 NSaved=   5.
 NSaved= 5 IEnMin= 1 EnMin= -1135.87889110948     IErMin= 5 ErrMin= 1.23D-02
 ErrMax= 1.23D-02  0.00D+00 EMaxC= 1.00D-01 BMatC= 2.74D-02 BMatP= 4.26D-02
 IDIUse=3 WtCom= 8.77D-01 WtEn= 1.23D-01
 Rare condition: small coef for last iteration:  0.111D-15
 Coeff-Com: -0.218D+00 0.445D+00 0.136D+00 0.271D+00 0.366D+00
 Coeff-En:   0.536D-01 0.335D+00 0.309D+00 0.131D+00 0.171D+00
 Coeff:     -0.218D+00 0.445D+00 0.136D+00 0.271D+00 0.366D+00
 Gap=     0.025 Goal=   None    Shift=    0.000
 Gap=    -0.089 Goal=   None    Shift=    0.000
 RMSDP=8.17D-03 MaxDP=7.53D-01 DE=-1.20D-01 OVMax= 1.00D+00

 Cycle   6  Pass 1  IDiag  1:
 RMSU=  5.36D-03    CP:  7.66D-01  2.08D+00 -3.59D-01  2.71D-01  1.41D-01
 E= -1135.86307077487     Delta-E=       -0.159221029754 Rises=F Damp=F
 DIIS: error= 1.30D-02 at cycle   6 NSaved=   6.
 NSaved= 6 IEnMin= 1 EnMin= -1135.87889110948     IErMin= 5 ErrMin= 1.23D-02
 ErrMax= 1.30D-02  0.00D+00 EMaxC= 1.00D-01 BMatC= 2.29D-02 BMatP= 2.74D-02
 IDIUse=3 WtCom= 8.77D-01 WtEn= 1.23D-01
 EnCoef did     7 forward-backward iterations
 Coeff-Com: -0.977D-01 0.210D+00 0.101D+00 0.197D+00 0.309D+00 0.281D+00
 Coeff-En:   0.000D+00 0.000D+00 0.289D-01 0.135D+00 0.332D+00 0.504D+00
 Coeff:     -0.856D-01 0.184D+00 0.924D-01 0.189D+00 0.312D+00 0.308D+00
 Gap=     0.025 Goal=   None    Shift=    0.000
 Gap=     0.009 Goal=   None    Shift=    0.000
 RMSDP=3.93D-03 MaxDP=7.53D-01 DE=-1.59D-01 OVMax= 1.00D+00

 Cycle   7  Pass 1  IDiag  1:
 RMSU=  2.81D-03    CP:  7.61D-01  1.80D+00 -5.86D-01  4.44D-01  3.48D-01
                    CP:  6.66D-01
 E= -1136.06623032527     Delta-E=       -0.203159550403 Rises=F Damp=F
 DIIS: error= 2.51D-03 at cycle   7 NSaved=   7.
 NSaved= 7 IEnMin= 7 EnMin= -1136.06623032527     IErMin= 7 ErrMin= 2.51D-03
 ErrMax= 2.51D-03  0.00D+00 EMaxC= 1.00D-01 BMatC= 9.92D-04 BMatP= 2.29D-02
 IDIUse=3 WtCom= 9.75D-01 WtEn= 2.51D-02
 Coeff-Com: -0.251D-01 0.395D-01 0.209D-01-0.938D-02 0.888D-01 0.272D-01
 Coeff-Com:  0.858D+00
 Coeff-En:   0.000D+00 0.000D+00 0.000D+00 0.000D+00 0.000D+00 0.000D+00
 Coeff-En:   0.100D+01
 Coeff:     -0.245D-01 0.385D-01 0.204D-01-0.915D-02 0.866D-01 0.265D-01
 Coeff:      0.862D+00
 Gap=     0.042 Goal=   None    Shift=    0.000
 Gap=     0.069 Goal=   None    Shift=    0.000
 RMSDP=1.23D-03 MaxDP=1.30D-01 DE=-2.03D-01 OVMax= 4.33D-02

 Cycle   8  Pass 1  IDiag  1:
 RMSU=  8.34D-04    CP:  7.80D-01  1.67D+00 -5.21D-01  4.06D-01  3.27D-01
                    CP:  7.56D-01  9.97D-01
 E= -1136.06748013806     Delta-E=       -0.001249812785 Rises=F Damp=F
 DIIS: error= 9.95D-04 at cycle   8 NSaved=   8.
 NSaved= 8 IEnMin= 8 EnMin= -1136.06748013806     IErMin= 8 ErrMin= 9.95D-04
 ErrMax= 9.95D-04  0.00D+00 EMaxC= 1.00D-01 BMatC= 2.83D-04 BMatP= 9.92D-04
 IDIUse=3 WtCom= 9.90D-01 WtEn= 9.95D-03
 Coeff-Com: -0.167D-01 0.249D-01-0.378D-02-0.993D-02 0.559D-01-0.325D-01
 Coeff-Com:  0.184D+00 0.798D+00
 Coeff-En:   0.000D+00 0.000D+00 0.000D+00 0.000D+00 0.000D+00 0.000D+00
 Coeff-En:   0.000D+00 0.100D+01
 Coeff:     -0.166D-01 0.246D-01-0.375D-02-0.983D-02 0.553D-01-0.322D-01
 Coeff:      0.182D+00 0.800D+00
 Gap=     0.046 Goal=   None    Shift=    0.000
 Gap=     0.054 Goal=   None    Shift=    0.000
 RMSDP=2.81D-04 MaxDP=2.74D-02 DE=-1.25D-03 OVMax= 1.58D-02

 Cycle   9  Pass 1  IDiag  1:
 RMSU=  2.32D-04    CP:  7.80D-01  1.67D+00 -5.48D-01  3.95D-01  3.27D-01
                    CP:  7.60D-01  9.98D-01  1.12D+00
 E= -1136.06763741013     Delta-E=       -0.000157272074 Rises=F Damp=F
 DIIS: error= 8.87D-04 at cycle   9 NSaved=   9.
 NSaved= 9 IEnMin= 9 EnMin= -1136.06763741013     IErMin= 9 ErrMin= 8.87D-04
 ErrMax= 8.87D-04  0.00D+00 EMaxC= 1.00D-01 BMatC= 1.03D-04 BMatP= 2.83D-04
 IDIUse=3 WtCom= 9.91D-01 WtEn= 8.87D-03
 Coeff-Com: -0.429D-02 0.630D-02-0.335D-02-0.605D-02 0.386D-01-0.230D-01
 Coeff-Com: -0.151D-01 0.138D+00 0.869D+00
 Coeff-En:   0.000D+00 0.000D+00 0.000D+00 0.000D+00 0.000D+00 0.000D+00
 Coeff-En:   0.000D+00 0.000D+00 0.100D+01
 Coeff:     -0.425D-02 0.624D-02-0.332D-02-0.600D-02 0.383D-01-0.228D-01
 Coeff:     -0.150D-01 0.137D+00 0.870D+00
 Gap=     0.053 Goal=   None    Shift=    0.000
 Gap=     0.052 Goal=   None    Shift=    0.000
 RMSDP=2.16D-04 MaxDP=2.36D-02 DE=-1.57D-04 OVMax= 9.73D-03

 Cycle  10  Pass 1  IDiag  1:
 RMSU=  1.04D-04    CP:  7.77D-01  1.69D+00 -5.70D-01  3.97D-01  3.40D-01
                    CP:  7.47D-01  1.01D+00  1.07D+00  1.47D+00
 E= -1136.06775837518     Delta-E=       -0.000120965048 Rises=F Damp=F
 DIIS: error= 6.63D-04 at cycle  10 NSaved=  10.
 NSaved=10 IEnMin=10 EnMin= -1136.06775837518     IErMin=10 ErrMin= 6.63D-04
 ErrMax= 6.63D-04  0.00D+00 EMaxC= 1.00D-01 BMatC= 5.38D-05 BMatP= 1.03D-04
 IDIUse=3 WtCom= 9.93D-01 WtEn= 6.63D-03
 Coeff-Com: -0.518D-03 0.784D-03 0.534D-03-0.409D-02 0.245D-01-0.150D-01
 Coeff-Com: -0.140D-01-0.226D-01-0.139D+00 0.117D+01
 Coeff-En:   0.000D+00 0.000D+00 0.000D+00 0.000D+00 0.000D+00 0.000D+00
 Coeff-En:   0.000D+00 0.000D+00 0.000D+00 0.100D+01
 Coeff:     -0.515D-03 0.779D-03 0.530D-03-0.406D-02 0.243D-01-0.149D-01
 Coeff:     -0.139D-01-0.225D-01-0.138D+00 0.117D+01
 Gap=     0.051 Goal=   None    Shift=    0.000
 Gap=     0.053 Goal=   None    Shift=    0.000
 RMSDP=1.14D-04 MaxDP=1.57D-02 DE=-1.21D-04 OVMax= 8.79D-03

 Cycle  11  Pass 1  IDiag  1:
 RMSU=  6.67D-05    CP:  7.77D-01  1.69D+00 -5.71D-01  3.99D-01  3.49D-01
                    CP:  7.42D-01  1.01D+00  1.06D+00  1.65D+00  1.63D+00
 E= -1136.06782747347     Delta-E=       -0.000069098295 Rises=F Damp=F
 DIIS: error= 4.36D-04 at cycle  11 NSaved=  11.
 NSaved=11 IEnMin=11 EnMin= -1136.06782747347     IErMin=11 ErrMin= 4.36D-04
 ErrMax= 4.36D-04  0.00D+00 EMaxC= 1.00D-01 BMatC= 2.90D-05 BMatP= 5.38D-05
 IDIUse=3 WtCom= 9.96D-01 WtEn= 4.36D-03
 Coeff-Com:  0.940D-03-0.113D-02 0.852D-03-0.185D-02 0.123D-01-0.116D-01
 Coeff-Com:  0.109D-01-0.543D-02-0.489D+00 0.348D+00 0.114D+01
 Coeff-En:   0.000D+00 0.000D+00 0.000D+00 0.000D+00 0.000D+00 0.000D+00
 Coeff-En:   0.000D+00 0.000D+00 0.000D+00 0.000D+00 0.100D+01
 Coeff:      0.936D-03-0.113D-02 0.848D-03-0.185D-02 0.123D-01-0.115D-01
 Coeff:      0.109D-01-0.540D-02-0.487D+00 0.346D+00 0.114D+01
 Gap=     0.054 Goal=   None    Shift=    0.000
 Gap=     0.049 Goal=   None    Shift=    0.000
 RMSDP=1.23D-04 MaxDP=1.36D-02 DE=-6.91D-05 OVMax= 6.26D-03

 Cycle  12  Pass 1  IDiag  1:
 RMSU=  4.41D-05    CP:  7.76D-01  1.70D+00 -5.81D-01  4.02D-01  3.58D-01
                    CP:  7.37D-01  1.01D+00  1.04D+00  1.84D+00  2.40D+00
                    CP:  1.31D+00
 E= -1136.06786514205     Delta-E=       -0.000037668581 Rises=F Damp=F
 DIIS: error= 2.70D-04 at cycle  12 NSaved=  12.
 NSaved=12 IEnMin=12 EnMin= -1136.06786514205     IErMin=12 ErrMin= 2.70D-04
 ErrMax= 2.70D-04  0.00D+00 EMaxC= 1.00D-01 BMatC= 1.15D-05 BMatP= 2.90D-05
 IDIUse=3 WtCom= 9.97D-01 WtEn= 2.70D-03
 Coeff-Com:  0.745D-03-0.807D-03 0.374D-03-0.264D-03 0.422D-02-0.913D-02
 Coeff-Com:  0.239D-01 0.155D-01-0.181D+00-0.377D+00 0.540D+00 0.983D+00
 Coeff-En:   0.000D+00 0.000D+00 0.000D+00 0.000D+00 0.000D+00 0.000D+00
 Coeff-En:   0.000D+00 0.000D+00 0.000D+00 0.000D+00 0.000D+00 0.100D+01
 Coeff:      0.743D-03-0.805D-03 0.373D-03-0.264D-03 0.421D-02-0.911D-02
 Coeff:      0.238D-01 0.155D-01-0.181D+00-0.376D+00 0.538D+00 0.984D+00
 Gap=     0.057 Goal=   None    Shift=    0.000
 Gap=     0.047 Goal=   None    Shift=    0.000
 RMSDP=7.68D-05 MaxDP=9.67D-03 DE=-3.77D-05 OVMax= 4.22D-03

 Cycle  13  Pass 1  IDiag  1:
 RMSU=  2.34D-05    CP:  7.76D-01  1.69D+00 -5.84D-01  4.03D-01  3.63D-01
                    CP:  7.33D-01  1.02D+00  1.03D+00  1.94D+00  2.71D+00
                    CP:  2.02D+00  1.36D+00
 E= -1136.06788091827     Delta-E=       -0.000015776214 Rises=F Damp=F
 DIIS: error= 1.67D-04 at cycle  13 NSaved=  13.
 NSaved=13 IEnMin=13 EnMin= -1136.06788091827     IErMin=13 ErrMin= 1.67D-04
 ErrMax= 1.67D-04  0.00D+00 EMaxC= 1.00D-01 BMatC= 2.87D-06 BMatP= 1.15D-05
 IDIUse=3 WtCom= 9.98D-01 WtEn= 1.67D-03
 Coeff-Com: -0.643D-03 0.738D-03 0.239D-03 0.764D-03 0.450D-03-0.383D-02
 Coeff-Com:  0.200D-01 0.253D-01 0.113D+00-0.250D+00-0.353D+00 0.196D+00
 Coeff-Com:  0.125D+01
 Coeff-En:   0.000D+00 0.000D+00 0.000D+00 0.000D+00 0.000D+00 0.000D+00
 Coeff-En:   0.000D+00 0.000D+00 0.000D+00 0.000D+00 0.000D+00 0.000D+00
 Coeff-En:   0.100D+01
 Coeff:     -0.642D-03 0.737D-03 0.239D-03 0.763D-03 0.449D-03-0.382D-02
 Coeff:      0.200D-01 0.253D-01 0.112D+00-0.250D+00-0.352D+00 0.195D+00
 Coeff:      0.125D+01
 Gap=     0.059 Goal=   None    Shift=    0.000
 Gap=     0.045 Goal=   None    Shift=    0.000
 RMSDP=5.88D-05 MaxDP=9.51D-03 DE=-1.58D-05 OVMax= 3.16D-03

 Cycle  14  Pass 1  IDiag  1:
 RMSU=  1.28D-05    CP:  7.76D-01  1.69D+00 -5.82D-01  4.04D-01  3.66D-01
                    CP:  7.33D-01  1.02D+00  1.05D+00  1.89D+00  2.91D+00
                    CP:  2.40D+00  1.97D+00  1.74D+00
 E= -1136.06788589815     Delta-E=       -0.000004979883 Rises=F Damp=F
 DIIS: error= 4.54D-05 at cycle  14 NSaved=  14.
 NSaved=14 IEnMin=14 EnMin= -1136.06788589815     IErMin=14 ErrMin= 4.54D-05
 ErrMax= 4.54D-05  0.00D+00 EMaxC= 1.00D-01 BMatC= 2.37D-07 BMatP= 2.87D-06
 IDIUse=1 WtCom= 1.00D+00 WtEn= 0.00D+00
 Coeff-Com: -0.370D-03 0.348D-03-0.525D-04 0.345D-03 0.257D-03-0.899D-03
 Coeff-Com:  0.696D-02 0.148D-01-0.583D-03-0.109D-01-0.431D-01-0.907D-01
 Coeff-Com:  0.771D-01 0.105D+01
 Coeff:     -0.370D-03 0.348D-03-0.525D-04 0.345D-03 0.257D-03-0.899D-03
 Coeff:      0.696D-02 0.148D-01-0.583D-03-0.109D-01-0.431D-01-0.907D-01
 Coeff:      0.771D-01 0.105D+01
 Gap=     0.060 Goal=   None    Shift=    0.000
 Gap=     0.046 Goal=   None    Shift=    0.000
 RMSDP=2.15D-05 MaxDP=2.96D-03 DE=-4.98D-06 OVMax= 1.01D-03

 Cycle  15  Pass 1  IDiag  1:
 RMSU=  9.29D-06    CP:  7.76D-01  1.68D+00 -5.81D-01  4.04D-01  3.66D-01
                    CP:  7.34D-01  1.02D+00  1.05D+00  1.86D+00  2.93D+00
                    CP:  2.44D+00  2.09D+00  2.13D+00  1.43D+00
 E= -1136.06788636547     Delta-E=       -0.000000467321 Rises=F Damp=F
 DIIS: error= 1.05D-05 at cycle  15 NSaved=  15.
 NSaved=15 IEnMin=15 EnMin= -1136.06788636547     IErMin=15 ErrMin= 1.05D-05
 ErrMax= 1.05D-05  0.00D+00 EMaxC= 1.00D-01 BMatC= 4.64D-08 BMatP= 2.37D-07
 IDIUse=1 WtCom= 1.00D+00 WtEn= 0.00D+00
 Coeff-Com: -0.997D-04 0.873D-04-0.129D-03 0.143D-03 0.817D-04-0.469D-05
 Coeff-Com:  0.175D-03 0.414D-02-0.278D-01 0.402D-01 0.524D-01-0.708D-01
 Coeff-Com: -0.211D+00 0.447D+00 0.766D+00
 Coeff:     -0.997D-04 0.873D-04-0.129D-03 0.143D-03 0.817D-04-0.469D-05
 Coeff:      0.175D-03 0.414D-02-0.278D-01 0.402D-01 0.524D-01-0.708D-01
 Coeff:     -0.211D+00 0.447D+00 0.766D+00
 Gap=     0.060 Goal=   None    Shift=    0.000
 Gap=     0.046 Goal=   None    Shift=    0.000
 RMSDP=1.66D-05 MaxDP=2.07D-03 DE=-4.67D-07 OVMax= 4.83D-04

 Cycle  16  Pass 1  IDiag  1:
 RMSU=  3.19D-06    CP:  7.77D-01  1.68D+00 -5.79D-01  4.04D-01  3.66D-01
                    CP:  7.35D-01  1.02D+00  1.06D+00  1.83D+00  2.91D+00
                    CP:  2.47D+00  2.11D+00  2.27D+00  1.89D+00  1.09D+00
 E= -1136.06788642722     Delta-E=       -0.000000061750 Rises=F Damp=F
 DIIS: error= 3.77D-06 at cycle  16 NSaved=  16.
 NSaved=16 IEnMin=16 EnMin= -1136.06788642722     IErMin=16 ErrMin= 3.77D-06
 ErrMax= 3.77D-06  0.00D+00 EMaxC= 1.00D-01 BMatC= 5.08D-09 BMatP= 4.64D-08
 IDIUse=1 WtCom= 1.00D+00 WtEn= 0.00D+00
 Coeff-Com:  0.476D-05-0.391D-05-0.709D-04 0.562D-04-0.772D-05 0.515D-04
 Coeff-Com: -0.711D-03-0.282D-03-0.101D-01 0.141D-01 0.229D-01-0.105D-01
 Coeff-Com: -0.753D-01 0.217D-01 0.281D+00 0.757D+00
 Coeff:      0.476D-05-0.391D-05-0.709D-04 0.562D-04-0.772D-05 0.515D-04
 Coeff:     -0.711D-03-0.282D-03-0.101D-01 0.141D-01 0.229D-01-0.105D-01
 Coeff:     -0.753D-01 0.217D-01 0.281D+00 0.757D+00
 Gap=     0.060 Goal=   None    Shift=    0.000
 Gap=     0.046 Goal=   None    Shift=    0.000
 RMSDP=6.58D-06 MaxDP=7.54D-04 DE=-6.18D-08 OVMax= 1.29D-04

 Cycle  17  Pass 1  IDiag  1:
 RMSU=  1.50D-06    CP:  7.77D-01  1.68D+00 -5.79D-01  4.04D-01  3.66D-01
                    CP:  7.35D-01  1.02D+00  1.07D+00  1.83D+00  2.91D+00
                    CP:  2.46D+00  2.12D+00  2.28D+00  2.00D+00  1.36D+00
                    CP:  1.17D+00
 E= -1136.06788643254     Delta-E=       -0.000000005318 Rises=F Damp=F
 DIIS: error= 1.86D-06 at cycle  17 NSaved=  17.
 NSaved=17 IEnMin=17 EnMin= -1136.06788643254     IErMin=17 ErrMin= 1.86D-06
 ErrMax= 1.86D-06  0.00D+00 EMaxC= 1.00D-01 BMatC= 4.42D-10 BMatP= 5.08D-09
 IDIUse=1 WtCom= 1.00D+00 WtEn= 0.00D+00
 Coeff-Com:  0.763D-05-0.811D-05 0.345D-06 0.803D-06 0.632D-05 0.126D-05
 Coeff-Com: -0.548D-04-0.533D-03 0.280D-02-0.387D-02-0.306D-02 0.897D-02
 Coeff-Com:  0.195D-01-0.566D-01-0.644D-01 0.101D+00 0.997D+00
 Coeff:      0.763D-05-0.811D-05 0.345D-06 0.803D-06 0.632D-05 0.126D-05
 Coeff:     -0.548D-04-0.533D-03 0.280D-02-0.387D-02-0.306D-02 0.897D-02
 Coeff:      0.195D-01-0.566D-01-0.644D-01 0.101D+00 0.997D+00
 Gap=     0.060 Goal=   None    Shift=    0.000
 Gap=     0.046 Goal=   None    Shift=    0.000
 RMSDP=3.13D-06 MaxDP=3.88D-04 DE=-5.32D-09 OVMax= 9.60D-05

 Cycle  18  Pass 1  IDiag  1:
 RMSU=  2.21D-07    CP:  7.77D-01  1.68D+00 -5.78D-01  4.04D-01  3.65D-01
                    CP:  7.35D-01  1.02D+00  1.07D+00  1.82D+00  2.91D+00
                    CP:  2.45D+00  2.12D+00  2.28D+00  2.06D+00  1.44D+00
                    CP:  1.39D+00  1.30D+00
 E= -1136.06788643369     Delta-E=       -0.000000001150 Rises=F Damp=F
 DIIS: error= 4.39D-07 at cycle  18 NSaved=  18.
 NSaved=18 IEnMin=18 EnMin= -1136.06788643369     IErMin=18 ErrMin= 4.39D-07
 ErrMax= 4.39D-07  0.00D+00 EMaxC= 1.00D-01 BMatC= 7.63D-11 BMatP= 4.42D-10
 IDIUse=1 WtCom= 1.00D+00 WtEn= 0.00D+00
 Coeff-Com:  0.324D-06 0.197D-07 0.903D-05-0.290D-05 0.465D-06 0.229D-05
 Coeff-Com:  0.111D-04-0.181D-03 0.182D-02-0.174D-02-0.393D-02 0.360D-02
 Coeff-Com:  0.129D-01-0.233D-01-0.377D-01-0.230D-01 0.370D+00 0.702D+00
 Coeff:      0.324D-06 0.197D-07 0.903D-05-0.290D-05 0.465D-06 0.229D-05
 Coeff:      0.111D-04-0.181D-03 0.182D-02-0.174D-02-0.393D-02 0.360D-02
 Coeff:      0.129D-01-0.233D-01-0.377D-01-0.230D-01 0.370D+00 0.702D+00
 Gap=     0.060 Goal=   None    Shift=    0.000
 Gap=     0.046 Goal=   None    Shift=    0.000
 RMSDP=7.75D-07 MaxDP=8.45D-05 DE=-1.15D-09 OVMax= 1.67D-05

 Cycle  19  Pass 1  IDiag  1:
 RMSU=  6.10D-08    CP:  7.77D-01  1.68D+00 -5.78D-01  4.04D-01  3.65D-01
                    CP:  7.35D-01  1.02D+00  1.07D+00  1.82D+00  2.91D+00
                    CP:  2.45D+00  2.12D+00  2.28D+00  2.07D+00  1.47D+00
                    CP:  1.40D+00  1.44D+00  1.20D+00
 E= -1136.06788643382     Delta-E=       -0.000000000129 Rises=F Damp=F
 DIIS: error= 2.18D-07 at cycle  19 NSaved=  19.
 NSaved=19 IEnMin=19 EnMin= -1136.06788643382     IErMin=19 ErrMin= 2.18D-07
 ErrMax= 2.18D-07  0.00D+00 EMaxC= 1.00D-01 BMatC= 6.29D-12 BMatP= 7.63D-11
 IDIUse=1 WtCom= 1.00D+00 WtEn= 0.00D+00
 Coeff-Com:  0.505D-06-0.692D-06 0.256D-06-0.769D-06-0.111D-05 0.114D-05
 Coeff-Com: -0.224D-04 0.359D-04-0.241D-03 0.286D-03 0.522D-03-0.573D-03
 Coeff-Com: -0.265D-02 0.430D-02 0.804D-02-0.143D-01-0.676D-01 0.476D-01
 Coeff-Com:  0.102D+01
 Coeff:      0.505D-06-0.692D-06 0.256D-06-0.769D-06-0.111D-05 0.114D-05
 Coeff:     -0.224D-04 0.359D-04-0.241D-03 0.286D-03 0.522D-03-0.573D-03
 Coeff:     -0.265D-02 0.430D-02 0.804D-02-0.143D-01-0.676D-01 0.476D-01
 Coeff:      0.102D+01
 Gap=     0.060 Goal=   None    Shift=    0.000
 Gap=     0.046 Goal=   None    Shift=    0.000
 RMSDP=2.09D-07 MaxDP=1.86D-05 DE=-1.29D-10 OVMax= 1.13D-05

 Cycle  20  Pass 1  IDiag  1:
 RMSU=  3.31D-08    CP:  7.77D-01  1.68D+00 -5.78D-01  4.04D-01  3.65D-01
                    CP:  7.35D-01  1.02D+00  1.07D+00  1.82D+00  2.91D+00
                    CP:  2.45D+00  2.12D+00  2.28D+00  2.07D+00  1.48D+00
                    CP:  1.41D+00  1.48D+00  1.39D+00  1.91D+00
 E= -1136.06788643386     Delta-E=       -0.000000000039 Rises=F Damp=F
 DIIS: error= 1.51D-07 at cycle  20 NSaved=  20.
 NSaved=20 IEnMin=20 EnMin= -1136.06788643386     IErMin=20 ErrMin= 1.51D-07
 ErrMax= 1.51D-07  0.00D+00 EMaxC= 1.00D-01 BMatC= 2.06D-12 BMatP= 6.29D-12
 IDIUse=1 WtCom= 1.00D+00 WtEn= 0.00D+00
 Coeff-Com:  0.240D-06-0.203D-06-0.157D-05 0.197D-07 0.105D-05-0.476D-06
 Coeff-Com:  0.824D-05-0.292D-05-0.180D-03 0.269D-03 0.299D-03-0.325D-03
 Coeff-Com: -0.850D-03 0.155D-02 0.379D-02 0.496D-02-0.312D-01-0.187D+00
 Coeff-Com: -0.213D+00 0.142D+01
 Coeff:      0.240D-06-0.203D-06-0.157D-05 0.197D-07 0.105D-05-0.476D-06
 Coeff:      0.824D-05-0.292D-05-0.180D-03 0.269D-03 0.299D-03-0.325D-03
 Coeff:     -0.850D-03 0.155D-02 0.379D-02 0.496D-02-0.312D-01-0.187D+00
 Coeff:     -0.213D+00 0.142D+01
 Gap=     0.060 Goal=   None    Shift=    0.000
 Gap=     0.046 Goal=   None    Shift=    0.000
 RMSDP=1.43D-07 MaxDP=1.24D-05 DE=-3.87D-11 OVMax= 1.24D-05

 Cycle  21  Pass 1  IDiag  1:
 Restarting incremental Fock formation.
 E= -1136.06788643388     Delta-E=       -0.000000000025 Rises=F Damp=F
 DIIS: error= 9.88D-08 at cycle  21 NSaved=  20.
 NSaved=20 IEnMin=20 EnMin= -1136.06788643388     IErMin=20 ErrMin= 9.88D-08
 ErrMax= 9.88D-08  0.00D+00 EMaxC= 1.00D-01 BMatC= 5.28D-13 BMatP= 2.06D-12
 IDIUse=1 WtCom= 1.00D+00 WtEn= 0.00D+00
 Coeff-Com: -0.391D-06 0.363D-06 0.251D-06-0.476D-07-0.316D-06 0.502D-05
 Coeff-Com:  0.589D-05 0.200D-04-0.978D-04-0.642D-04 0.141D-03 0.191D-03
 Coeff-Com: -0.307D-03-0.121D-02-0.922D-03 0.110D-01 0.517D-01-0.127D+00
 Coeff-Com: -0.528D+00 0.159D+01
 Coeff:     -0.391D-06 0.363D-06 0.251D-06-0.476D-07-0.316D-06 0.502D-05
 Coeff:      0.589D-05 0.200D-04-0.978D-04-0.642D-04 0.141D-03 0.191D-03
 Coeff:     -0.307D-03-0.121D-02-0.922D-03 0.110D-01 0.517D-01-0.127D+00
 Coeff:     -0.528D+00 0.159D+01
 Gap=     0.060 Goal=   None    Shift=    0.000
 Gap=     0.046 Goal=   None    Shift=    0.000
 RMSDP=7.49D-08 MaxDP=6.36D-06 DE=-2.50D-11 OVMax= 1.08D-05

 Cycle  22  Pass 1  IDiag  1:
 RMSU=  7.44D-08    CP:  1.00D+00
 E= -1136.06788643389     Delta-E=       -0.000000000010 Rises=F Damp=F
 DIIS: error= 6.00D-08 at cycle  22 NSaved=  20.
 NSaved=20 IEnMin=20 EnMin= -1136.06788643389     IErMin=20 ErrMin= 6.00D-08
 ErrMax= 6.00D-08  0.00D+00 EMaxC= 1.00D-01 BMatC= 2.32D-13 BMatP= 5.28D-13
 IDIUse=1 WtCom= 1.00D+00 WtEn= 0.00D+00
 Coeff-Com: -0.317D-06 0.349D-06 0.524D-06 0.467D-07-0.153D-05 0.417D-05
 Coeff-Com:  0.819D-04-0.132D-03-0.127D-03 0.963D-04 0.502D-03-0.648D-03
 Coeff-Com: -0.207D-02-0.405D-03 0.142D-01 0.720D-01 0.355D-01-0.549D+00
 Coeff-Com:  0.409D+00 0.102D+01
 Coeff:     -0.317D-06 0.349D-06 0.524D-06 0.467D-07-0.153D-05 0.417D-05
 Coeff:      0.819D-04-0.132D-03-0.127D-03 0.963D-04 0.502D-03-0.648D-03
 Coeff:     -0.207D-02-0.405D-03 0.142D-01 0.720D-01 0.355D-01-0.549D+00
 Coeff:      0.409D+00 0.102D+01
 Gap=     0.060 Goal=   None    Shift=    0.000
 Gap=     0.046 Goal=   None    Shift=    0.000
 RMSDP=3.12D-08 MaxDP=3.14D-06 DE=-1.02D-11 OVMax= 5.38D-06

 Cycle  23  Pass 1  IDiag  1:
 RMSU=  2.81D-08    CP:  1.00D+00  1.18D+00
 E= -1136.06788643389     Delta-E=        0.000000000004 Rises=F Damp=F
 DIIS: error= 3.04D-08 at cycle  23 NSaved=  20.
 NSaved=20 IEnMin=19 EnMin= -1136.06788643389     IErMin=20 ErrMin= 3.04D-08
 ErrMax= 3.04D-08  0.00D+00 EMaxC= 1.00D-01 BMatC= 4.96D-14 BMatP= 2.32D-13
 IDIUse=1 WtCom= 1.00D+00 WtEn= 0.00D+00
 Coeff-Com:  0.700D-07-0.497D-07 0.123D-06-0.335D-05 0.360D-07 0.252D-05
 Coeff-Com:  0.818D-05 0.288D-05-0.142D-04-0.271D-04 0.962D-04 0.139D-03
 Coeff-Com:  0.531D-03-0.273D-02-0.515D-02 0.450D-01 0.731D-01-0.520D+00
 Coeff-Com:  0.808D-02 0.140D+01
 Coeff:      0.700D-07-0.497D-07 0.123D-06-0.335D-05 0.360D-07 0.252D-05
 Coeff:      0.818D-05 0.288D-05-0.142D-04-0.271D-04 0.962D-04 0.139D-03
 Coeff:      0.531D-03-0.273D-02-0.515D-02 0.450D-01 0.731D-01-0.520D+00
 Coeff:      0.808D-02 0.140D+01
 Gap=     0.060 Goal=   None    Shift=    0.000
 Gap=     0.046 Goal=   None    Shift=    0.000
 RMSDP=2.60D-08 MaxDP=2.89D-06 DE= 4.09D-12 OVMax= 4.96D-06

 Cycle  24  Pass 1  IDiag  1:
 RMSU=  8.25D-09    CP:  1.00D+00  1.40D+00  1.67D+00
 E= -1136.06788643389     Delta-E=       -0.000000000005 Rises=F Damp=F
 DIIS: error= 6.35D-09 at cycle  24 NSaved=  20.
 NSaved=20 IEnMin=20 EnMin= -1136.06788643389     IErMin=20 ErrMin= 6.35D-09
 ErrMax= 6.35D-09  0.00D+00 EMaxC= 1.00D-01 BMatC= 8.96D-15 BMatP= 4.96D-14
 IDIUse=1 WtCom= 1.00D+00 WtEn= 0.00D+00
 Large coefficients: NSaved= 20 BigCof=    0.00 CofMax=   10.00 Det=-4.99D-15
 Inversion failed.  Reducing to 19 matrices.
 Large coefficients: NSaved= 19 BigCof=    0.00 CofMax=   10.00 Det=-5.16D-15
 Inversion failed.  Reducing to 18 matrices.
 Large coefficients: NSaved= 18 BigCof=    0.00 CofMax=   10.00 Det=-5.69D-15
 Inversion failed.  Reducing to 17 matrices.
 Large coefficients: NSaved= 17 BigCof=    0.00 CofMax=   10.00 Det=-7.08D-15
 Inversion failed.  Reducing to 16 matrices.
 Large coefficients: NSaved= 16 BigCof=    0.00 CofMax=   10.00 Det=-7.66D-15
 Inversion failed.  Reducing to 15 matrices.
 Coeff-Com:  0.106D-04-0.521D-06-0.161D-04-0.159D-04 0.496D-04-0.211D-04
 Coeff-Com: -0.235D-03-0.115D-02 0.124D-02-0.148D-02 0.349D-01-0.122D-01
 Coeff-Com: -0.153D+00-0.233D-03 0.113D+01
 Coeff:      0.106D-04-0.521D-06-0.161D-04-0.159D-04 0.496D-04-0.211D-04
 Coeff:     -0.235D-03-0.115D-02 0.124D-02-0.148D-02 0.349D-01-0.122D-01
 Coeff:     -0.153D+00-0.233D-03 0.113D+01
 Gap=     0.060 Goal=   None    Shift=    0.000
 Gap=     0.046 Goal=   None    Shift=    0.000
 RMSDP=1.00D-08 MaxDP=7.81D-07 DE=-5.23D-12 OVMax= 8.06D-07

 Cycle  25  Pass 1  IDiag  1:
 RMSU=  3.99D-09    CP:  1.00D+00  1.35D+00  1.91D+00  1.57D+00
 E= -1136.06788643390     Delta-E=       -0.000000000001 Rises=F Damp=F
 DIIS: error= 1.58D-09 at cycle  25 NSaved=  16.
 NSaved=16 IEnMin=16 EnMin= -1136.06788643390     IErMin=16 ErrMin= 1.58D-09
 ErrMax= 1.58D-09  0.00D+00 EMaxC= 1.00D-01 BMatC= 7.32D-16 BMatP= 8.96D-15
 IDIUse=1 WtCom= 1.00D+00 WtEn= 0.00D+00
 Large coefficients: NSaved= 16 BigCof=    0.00 CofMax=   10.00 Det=-1.98D-15
 Inversion failed.  Reducing to 15 matrices.
 Coeff-Com: -0.762D-06 0.295D-05 0.821D-05-0.462D-04-0.523D-04 0.296D-04
 Coeff-Com:  0.286D-03 0.173D-02-0.558D-02-0.808D-02 0.643D-01-0.311D-01
 Coeff-Com: -0.153D+00 0.898D-01 0.104D+01
 Coeff:     -0.762D-06 0.295D-05 0.821D-05-0.462D-04-0.523D-04 0.296D-04
 Coeff:      0.286D-03 0.173D-02-0.558D-02-0.808D-02 0.643D-01-0.311D-01
 Coeff:     -0.153D+00 0.898D-01 0.104D+01
 Gap=     0.060 Goal=   None    Shift=    0.000
 Gap=     0.046 Goal=   None    Shift=    0.000
 RMSDP=3.76D-09 MaxDP=4.05D-07 DE=-1.36D-12 OVMax= 1.91D-07

 SCF Done:  E(UB3LYP) =  -1136.06788643     A.U. after   25 cycles
            NFock= 25  Conv=0.38D-08     -V/T= 2.0029
 <Sx>= 0.0000 <Sy>= 0.0000 <Sz>= 0.5000 <S**2>= 1.7716 S= 0.9218
 <L.S>= 0.000000000000E+00
 KE= 1.132823948870D+03 PE=-2.940814575512D+03 EE= 5.658090483919D+02
 Annihilation of the first spin contaminant:
 S**2 before annihilation     1.7716,   after     0.8218
 Leave Link  502 at Tue Nov 21 11:50:11 2023, MaxMem=   104857600 cpu:             644.3 elap:             535.8
 (Enter /home/sekinelabo/g16/l601.exe)
 Copying SCF densities to generalized density rwf, IOpCl= 1 IROHF=0.

 **********************************************************************

            Population analysis using the SCF Density.

 **********************************************************************

 Orbital symmetries:
 Alpha Orbitals:
       Occupied  (A) (A) (A) (A) (A) (A) (A) (A) (A) (A) (A) (A)
                 (A) (A) (A) (A) (A) (A) (A) (A) (A) (A) (A) (A)
                 (A) (A) (A) (A) (A) (A) (A) (A) (A) (A) (A) (A)
                 (A) (A) (A)
       Virtual   (A) (A) (A) (A) (A) (A) (A) (A) (A) (A) (A) (A)
                 (A) (A) (A) (A) (A) (A) (A) (A) (A) (A) (A) (A)
                 (A) (A) (A) (A) (A) (A) (A) (A) (A) (A) (A) (A)
                 (A) (A) (A) (A) (A) (A) (A) (A) (A) (A) (A) (A)
                 (A) (A) (A) (A) (A) (A) (A) (A) (A) (A) (A) (A)
                 (A) (A) (A) (A) (A) (A) (A) (A) (A) (A) (A) (A)
                 (A) (A) (A) (A) (A) (A) (A) (A) (A) (A) (A) (A)
                 (A) (A) (A) (A) (A) (A) (A) (A) (A) (A) (A) (A)
                 (A) (A) (A) (A) (A) (A) (A) (A) (A) (A) (A) (A)
                 (A) (A) (A) (A) (A) (A) (A) (A) (A) (A) (A) (A)
                 (A) (A) (A) (A) (A) (A) (A) (A) (A) (A) (A) (A)
                 (A) (A) (A) (A) (A) (A) (A) (A) (A) (A) (A) (A)
                 (A) (A) (A) (A) (A) (A) (A) (A) (A) (A) (A) (A)
                 (A) (A) (A) (A) (A) (A) (A) (A) (A) (A) (A) (A)
                 (A) (A) (A)
 Beta  Orbitals:
       Occupied  (A) (A) (A) (A) (A) (A) (A) (A) (A) (A) (A) (A)
                 (A) (A) (A) (A) (A) (A) (A) (A) (A) (A) (A) (A)
                 (A) (A) (A) (A) (A) (A) (A) (A) (A) (A) (A) (A)
                 (A) (A)
       Virtual   (A) (A) (A) (A) (A) (A) (A) (A) (A) (A) (A) (A)
                 (A) (A) (A) (A) (A) (A) (A) (A) (A) (A) (A) (A)
                 (A) (A) (A) (A) (A) (A) (A) (A) (A) (A) (A) (A)
                 (A) (A) (A) (A) (A) (A) (A) (A) (A) (A) (A) (A)
                 (A) (A) (A) (A) (A) (A) (A) (A) (A) (A) (A) (A)
                 (A) (A) (A) (A) (A) (A) (A) (A) (A) (A) (A) (A)
                 (A) (A) (A) (A) (A) (A) (A) (A) (A) (A) (A) (A)
                 (A) (A) (A) (A) (A) (A) (A) (A) (A) (A) (A) (A)
                 (A) (A) (A) (A) (A) (A) (A) (A) (A) (A) (A) (A)
                 (A) (A) (A) (A) (A) (A) (A) (A) (A) (A) (A) (A)
                 (A) (A) (A) (A) (A) (A) (A) (A) (A) (A) (A) (A)
                 (A) (A) (A) (A) (A) (A) (A) (A) (A) (A) (A) (A)
                 (A) (A) (A) (A) (A) (A) (A) (A) (A) (A) (A) (A)
                 (A) (A) (A) (A) (A) (A) (A) (A) (A) (A) (A) (A)
                 (A) (A) (A) (A)
 The electronic state is 2-A.
 Alpha  occ. eigenvalues --  -38.45769 -38.45595 -38.45263 -38.44845 -38.44545
 Alpha  occ. eigenvalues --  -38.44545 -38.43580  -2.21554  -2.21219  -2.21068
 Alpha  occ. eigenvalues --   -2.20675  -2.20288  -2.20279  -2.19404  -1.15166
 Alpha  occ. eigenvalues --   -1.15166  -1.15166  -1.14944  -1.14944  -1.14944
 Alpha  occ. eigenvalues --   -1.14694  -1.14694  -1.14688  -1.14339  -1.14294
 Alpha  occ. eigenvalues --   -1.14294  -1.13960  -1.13960  -1.13951  -1.13951
 Alpha  occ. eigenvalues --   -1.13949  -1.13873  -1.13097  -1.13072  -1.13072
 Alpha  occ. eigenvalues --   -0.14745  -0.12797  -0.12706  -0.12195
 Alpha virt. eigenvalues --   -0.06228  -0.06059  -0.04852  -0.03047  -0.03042
 Alpha virt. eigenvalues --   -0.02236  -0.02236  -0.02096  -0.02096  -0.02095
 Alpha virt. eigenvalues --   -0.01494  -0.01329  -0.01282  -0.01247  -0.00092
 Alpha virt. eigenvalues --   -0.00092  -0.00091   0.00096   0.00123   0.00427
 Alpha virt. eigenvalues --    0.00428   0.00565   0.00689   0.00843   0.00949
 Alpha virt. eigenvalues --    0.01009   0.01025   0.01025   0.01311   0.01313
 Alpha virt. eigenvalues --    0.01336   0.01336   0.01345   0.01701   0.01717
 Alpha virt. eigenvalues --    0.01856   0.01908   0.01919   0.01940   0.02234
 Alpha virt. eigenvalues --    0.02240   0.02240   0.02552   0.02642   0.02643
 Alpha virt. eigenvalues --    0.03453   0.03565   0.03642   0.03835   0.04038
 Alpha virt. eigenvalues --    0.04318   0.05359   0.07063   0.07153   0.07298
 Alpha virt. eigenvalues --    0.07427   0.07464   0.07474   0.07479   0.07514
 Alpha virt. eigenvalues --    0.07603   0.07605   0.07939   0.08003   0.08037
 Alpha virt. eigenvalues --    0.08703   0.08818   0.08818   0.08830   0.09400
 Alpha virt. eigenvalues --    0.09401   0.09452   0.10192   0.10217   0.10502
 Alpha virt. eigenvalues --    0.10652   0.14083   0.14297   0.14375   0.17635
 Alpha virt. eigenvalues --    0.27388   0.27661   0.30231   0.30231   0.31394
 Alpha virt. eigenvalues --    0.31839   0.32173   0.32177   0.33229   0.33229
 Alpha virt. eigenvalues --    0.33229   0.33229   0.33229   0.34012   0.34012
 Alpha virt. eigenvalues --    0.34072   0.34073   0.35315   0.35316   0.35316
 Alpha virt. eigenvalues --    0.35316   0.35316   0.36887   0.36887   0.36953
 Alpha virt. eigenvalues --    0.37012   0.37261   0.38960   0.38977   0.41943
 Alpha virt. eigenvalues --    0.41943   0.41944   0.42070   0.42654   0.42700
 Alpha virt. eigenvalues --    0.43209   0.43266   0.43305   0.43305   0.43426
 Alpha virt. eigenvalues --    0.43426   0.43431   0.43679   0.43680   0.45022
 Alpha virt. eigenvalues --    0.45022   0.45050   0.45142   0.45986   0.46370
 Alpha virt. eigenvalues --    0.47262   0.51381   0.51471   0.59266   0.59693
 Alpha virt. eigenvalues --    0.73974   1.98670   1.99527   1.99990   2.00454
 Alpha virt. eigenvalues --    2.10337   2.11121   2.16790   4.40342   4.42423
 Alpha virt. eigenvalues --    4.42813   4.42813   4.42814   4.43124   4.43124
 Alpha virt. eigenvalues --    4.43128   4.43454   4.43459   4.43667   4.43766
 Alpha virt. eigenvalues --    4.44083   4.44083   4.44698   4.44699   4.46500
 Alpha virt. eigenvalues --    4.46590   4.51196   4.51299   4.64872  96.17687
 Alpha virt. eigenvalues --   96.17945  96.18638  96.19441  96.31851  96.32148
 Alpha virt. eigenvalues --   96.39340
  Beta  occ. eigenvalues --  -38.45781 -38.45584 -38.45141 -38.44747 -38.44545
  Beta  occ. eigenvalues --  -38.44545 -38.43581  -2.21565  -2.21208  -2.20840
  Beta  occ. eigenvalues --   -2.20494  -2.20288  -2.20279  -2.19417  -1.15178
  Beta  occ. eigenvalues --   -1.15178  -1.15178  -1.14932  -1.14932  -1.14932
  Beta  occ. eigenvalues --   -1.14539  -1.14539  -1.14536  -1.14220  -1.14171
  Beta  occ. eigenvalues --   -1.14171  -1.13960  -1.13960  -1.13951  -1.13951
  Beta  occ. eigenvalues --   -1.13949  -1.13873  -1.13092  -1.13092  -1.13023
  Beta  occ. eigenvalues --   -0.13521  -0.12808  -0.12706
  Beta virt. eigenvalues --   -0.08150  -0.06217  -0.06059  -0.04001  -0.02710
  Beta virt. eigenvalues --   -0.02701  -0.02236  -0.02236  -0.02108  -0.02107
  Beta virt. eigenvalues --   -0.02107  -0.01282  -0.00804  -0.00642  -0.00604
  Beta virt. eigenvalues --   -0.00082  -0.00081  -0.00079   0.00110   0.00219
  Beta virt. eigenvalues --    0.00427   0.00428   0.00565   0.00689   0.00850
  Beta virt. eigenvalues --    0.00936   0.01003   0.01015   0.01274   0.01305
  Beta virt. eigenvalues --    0.01313   0.01320   0.01326   0.01327   0.01738
  Beta virt. eigenvalues --    0.01806   0.01968   0.01978   0.02013   0.02052
  Beta virt. eigenvalues --    0.02251   0.02251   0.02284   0.02538   0.02641
  Beta virt. eigenvalues --    0.02643   0.03435   0.03596   0.03662   0.03906
  Beta virt. eigenvalues --    0.04037   0.04488   0.05583   0.07051   0.07394
  Beta virt. eigenvalues --    0.07462   0.07462   0.07487   0.07589   0.07604
  Beta virt. eigenvalues --    0.07611   0.07717   0.07796   0.08011   0.08404
  Beta virt. eigenvalues --    0.08466   0.08705   0.08829   0.08829   0.08852
  Beta virt. eigenvalues --    0.09401   0.09401   0.09463   0.10217   0.10410
  Beta virt. eigenvalues --    0.10565   0.11037   0.14083   0.14482   0.14756
  Beta virt. eigenvalues --    0.18108   0.28104   0.28380   0.30231   0.30231
  Beta virt. eigenvalues --    0.31394   0.32439   0.32587   0.32596   0.33218
  Beta virt. eigenvalues --    0.33218   0.33218   0.33218   0.33218   0.34012
  Beta virt. eigenvalues --    0.34012   0.35241   0.35243   0.35327   0.35327
  Beta virt. eigenvalues --    0.35327   0.35327   0.35327   0.36887   0.36887
  Beta virt. eigenvalues --    0.37691   0.37801   0.37839   0.39232   0.39263
  Beta virt. eigenvalues --    0.41932   0.41932   0.41935   0.42070   0.43098
  Beta virt. eigenvalues --    0.43140   0.43306   0.43306   0.43437   0.43437
  Beta virt. eigenvalues --    0.43442   0.43558   0.43620   0.43679   0.43681
  Beta virt. eigenvalues --    0.44828   0.44883   0.45022   0.45022   0.46405
  Beta virt. eigenvalues --    0.46821   0.47262   0.51617   0.51707   0.59654
  Beta virt. eigenvalues --    0.59693   0.74129   1.98659   1.99539   1.99990
  Beta virt. eigenvalues --    2.00788   2.10811   2.11121   2.16865   4.40485
  Beta virt. eigenvalues --    4.42422   4.42802   4.42802   4.42807   4.43135
  Beta virt. eigenvalues --    4.43136   4.43136   4.43579   4.43585   4.43835
  Beta virt. eigenvalues --    4.43932   4.44083   4.44083   4.44698   4.44699
  Beta virt. eigenvalues --    4.46496   4.46577   4.51299   4.51364   4.64964
  Beta virt. eigenvalues --   96.17676  96.17956  96.18638  96.19550  96.32008
  Beta virt. eigenvalues --   96.32148  96.39376
          Condensed to atoms (all electrons):
               1          2          3          4          5          6
     1  Na  11.000000  -0.000000  -0.000000  -0.000000   0.000000  -0.000000
     2  Na  -0.000000  10.683205   0.316813   0.000000   0.000000  -0.000000
     3  Na  -0.000000   0.316813  10.683169   0.000000  -0.000000  -0.000000
     4  Na  -0.000000   0.000000   0.000000  10.782719  -0.083820  -0.220666
     5  Na   0.000000   0.000000  -0.000000  -0.083820  11.610844   0.305204
     6  Na  -0.000000  -0.000000  -0.000000  -0.220666   0.305204  10.605000
     7  Na  -0.000000  -0.000000  -0.000000  -0.000000   0.000000   0.000000
               7
     1  Na  -0.000000
     2  Na  -0.000000
     3  Na  -0.000000
     4  Na  -0.000000
     5  Na   0.000000
     6  Na   0.000000
     7  Na  11.000000
          Atomic-Atomic Spin Densities.
               1          2          3          4          5          6
     1  Na  -1.000000   0.000000   0.000000   0.000000  -0.000000  -0.000000
     2  Na   0.000000  -0.000028   0.000005   0.000000   0.000000  -0.000000
     3  Na   0.000000   0.000005   0.000019   0.000000  -0.000000  -0.000000
     4  Na   0.000000   0.000000   0.000000   0.443479  -0.052701  -0.103197
     5  Na  -0.000000   0.000000  -0.000000  -0.052701   0.244856   0.136582
     6  Na  -0.000000  -0.000000  -0.000000  -0.103197   0.136582   0.350297
     7  Na  -0.000000  -0.000000   0.000000  -0.000000   0.000000   0.000000
               7
     1  Na  -0.000000
     2  Na  -0.000000
     3  Na   0.000000
     4  Na  -0.000000
     5  Na   0.000000
     6  Na   0.000000
     7  Na   1.000000
 Mulliken charges and spin densities:
               1          2
     1  Na  -0.000000  -1.000000
     2  Na  -0.000018  -0.000023
     3  Na   0.000018   0.000023
     4  Na   0.521767   0.287581
     5  Na  -0.832229   0.328737
     6  Na   0.310461   0.383682
     7  Na  -0.000000   1.000000
 Sum of Mulliken charges =  -0.00000   1.00000
 Mulliken charges and spin densities with hydrogens summed into heavy atoms:
               1          2
     1  Na  -0.000000  -1.000000
     2  Na  -0.000018  -0.000023
     3  Na   0.000018   0.000023
     4  Na   0.521767   0.287581
     5  Na  -0.832229   0.328737
     6  Na   0.310461   0.383682
     7  Na  -0.000000   1.000000
 Electronic spatial extent (au):  <R**2>=          90515.9349
 Charge=             -0.0000 electrons
 Dipole moment (field-independent basis, Debye):
    X=              0.1248    Y=             -0.0567    Z=             -0.0896  Tot=              0.1637
 Quadrupole moment (field-independent basis, Debye-Ang):
   XX=            -78.3588   YY=            -72.3873   ZZ=            -58.8294
   XY=             -4.0308   XZ=              2.9688   YZ=             -2.0614
 Traceless Quadrupole moment (field-independent basis, Debye-Ang):
   XX=             -8.5003   YY=             -2.5288   ZZ=             11.0291
   XY=             -4.0308   XZ=              2.9688   YZ=             -2.0614
 Octapole moment (field-independent basis, Debye-Ang**2):
  XXX=             81.5225  YYY=             34.1422  ZZZ=           -173.6914  XYY=             -1.6716
  XXY=            -62.8468  XXZ=             90.9422  XZZ=           -173.8899  YZZ=             -6.4234
  YYZ=           -133.8236  XYZ=            -30.6797
 Hexadecapole moment (field-independent basis, Debye-Ang**3):
 XXXX=         -96713.5918 YYYY=         -32858.3973 ZZZZ=         -21899.9135 XXXY=           -932.0526
 XXXZ=            350.0438 YYYX=           1067.4126 YYYZ=           -737.6966 ZZZX=           -221.1280
 ZZZY=          -1323.0566 XXYY=         -22277.6586 XXZZ=         -19159.0052 YYZZ=          -7559.6718
 XXYZ=            427.1880 YYXZ=           -324.9802 ZZXY=           1989.7558
 N-N= 1.061136918166D+02 E-N=-2.940814575519D+03  KE= 1.132823948870D+03
                          Isotropic Fermi Contact Couplings
        Atom                 a.u.       MegaHertz       Gauss      10(-4) cm-1
     1  Na(23)            -0.79296    -938.09922    -334.73713    -312.91622
     2  Na(23)            -0.00000      -0.00015      -0.00005      -0.00005
     3  Na(23)             0.00000       0.00017       0.00006       0.00006
     4  Na(23)             0.42423     501.87720     179.08226     167.40821
     5  Na(23)            -0.12500    -147.88350     -52.76851     -49.32863
     6  Na(23)             0.52900     625.82526     223.31001     208.75284
     7  Na(23)             0.79296     938.09911     334.73709     312.91618
 --------------------------------------------------------
       Center         ----  Spin Dipole Couplings  ----
                      3XX-RR        3YY-RR        3ZZ-RR
 --------------------------------------------------------
     1   Atom        0.000007     -0.000003     -0.000003
     2   Atom        0.000013     -0.000003     -0.000010
     3   Atom        0.000017     -0.000002     -0.000015
     4   Atom        0.002317      0.002221     -0.004538
     5   Atom       -0.044500     -0.042959      0.087459
     6   Atom        0.001963      0.001895     -0.003859
     7   Atom       -0.000012      0.000015     -0.000003
 --------------------------------------------------------
                        XY            XZ            YZ
 --------------------------------------------------------
     1   Atom       -0.000002      0.000003     -0.000000
     2   Atom        0.000011     -0.000018      0.000007
     3   Atom        0.000011     -0.000020      0.000011
     4   Atom        0.000108      0.000840     -0.001102
     5   Atom       -0.002541     -0.015783      0.021388
     6   Atom        0.000116      0.000795     -0.000972
     7   Atom        0.000000     -0.000001      0.000010
 --------------------------------------------------------


 ---------------------------------------------------------------------------------
              Anisotropic Spin Dipole Couplings in Principal Axis System
 ---------------------------------------------------------------------------------

       Atom             a.u.   MegaHertz   Gauss  10(-4) cm-1        Axes

              Baa    -0.0000    -0.001    -0.000    -0.000 -0.3122 -0.4553  0.8338
     1 Na(23) Bbb    -0.0000    -0.000    -0.000    -0.000  0.0557  0.8674  0.4945
              Bcc     0.0000     0.001     0.000     0.000  0.9484 -0.2008  0.2454
 
              Baa    -0.0000    -0.004    -0.001    -0.001  0.4771 -0.4500  0.7549
     2 Na(23) Bbb     0.0000     0.000     0.000     0.000  0.0150  0.8630  0.5050
              Bcc     0.0000     0.003     0.001     0.001  0.8787  0.2296 -0.4184
 
              Baa    -0.0000    -0.005    -0.002    -0.002  0.4278 -0.4524  0.7825
     3 Na(23) Bbb     0.0000     0.001     0.000     0.000  0.0094  0.8679  0.4966
              Bcc     0.0000     0.004     0.001     0.001  0.9038  0.2050 -0.3756
 
              Baa    -0.0048    -0.680    -0.243    -0.227 -0.1179  0.1555  0.9808
     4 Na(23) Bbb     0.0024     0.336     0.120     0.112  0.5442  0.8363 -0.0672
              Bcc     0.0024     0.344     0.123     0.115  0.8306 -0.5258  0.1832
 
              Baa    -0.0464    -6.551    -2.338    -2.185  0.5595  0.8262 -0.0660
     5 Na(23) Bbb    -0.0463    -6.545    -2.335    -2.183  0.8207 -0.5412  0.1833
              Bcc     0.0927    13.096     4.673     4.368 -0.1157  0.1568  0.9808
 
              Baa    -0.0041    -0.582    -0.208    -0.194 -0.1309  0.1604  0.9783
     6 Na(23) Bbb     0.0020     0.289     0.103     0.096  0.5209  0.8508 -0.0698
              Bcc     0.0021     0.294     0.105     0.098  0.8435 -0.5004  0.1949
 
              Baa    -0.0000    -0.002    -0.001    -0.001  0.9607 -0.1095  0.2552
     7 Na(23) Bbb    -0.0000    -0.001    -0.000    -0.000 -0.2777 -0.3883  0.8787
              Bcc     0.0000     0.003     0.001     0.001 -0.0029  0.9150  0.4034
 

 ---------------------------------------------------------------------------------

 No NMR shielding tensors so no spin-rotation constants.
 Leave Link  601 at Tue Nov 21 11:50:18 2023, MaxMem=   104857600 cpu:              16.8 elap:               6.2
 (Enter /home/sekinelabo/g16/l701.exe)
 ... and contract with generalized density number  0.
 Compute integral first derivatives.
 Leave Link  701 at Tue Nov 21 11:50:20 2023, MaxMem=   104857600 cpu:               7.2 elap:               2.7
 (Enter /home/sekinelabo/g16/l702.exe)
 L702 exits ... SP integral derivatives will be done elsewhere.
 Leave Link  702 at Tue Nov 21 11:50:21 2023, MaxMem=   104857600 cpu:               0.6 elap:               0.2
 (Enter /home/sekinelabo/g16/l703.exe)
 Integral derivatives from FoFJK, PRISM(SPDF).
 Compute integral first derivatives, UseDBF=F ICtDFT=           0.
 Calling FoFJK, ICntrl=      2127 FMM=F ISym2X=0 I1Cent= 0 IOpClX= 1 NMat=1 NMatS=1 NMatT=0.
 FoFJK:  IHMeth= 1 ICntrl=    2127 DoSepK=F KAlg= 0 I1Cent=           0 FoldK=F
 IRaf=         0 NMat=       1 IRICut=       1 DoRegI=T DoRafI=F ISym2E= 0 IDoP0=0 IntGTp=1.
 FoFCou: FMM=F IPFlag=           0 FMFlag=      100000 FMFlg1=         800
         NFxFlg=           0 DoJE=F BraDBF=F KetDBF=F FulRan=T
         wScrn=  0.000000 ICntrl=      2127 IOpCl=  1 I1Cent=           0 NGrid=           0
         NMat0=    1 NMatS0=      1 NMatT0=    0 NMatD0=    1 NMtDS0=    0 NMtDT0=    0
 Symmetry not used in FoFCou.
 Leave Link  703 at Tue Nov 21 11:50:28 2023, MaxMem=   104857600 cpu:              20.7 elap:               7.6
 (Enter /home/sekinelabo/g16/l716.exe)
 Dipole        = 4.90849680D-02-2.23005888D-02-3.52337063D-02
 ***** Axes restored to original set *****
 -------------------------------------------------------------------
 Center     Atomic                   Forces (Hartrees/Bohr)
 Number     Number              X              Y              Z
 -------------------------------------------------------------------
      1       11          -0.000000000   -0.000000050   -0.000000002
      2       11          -0.001359512    0.005399668   -0.000202858
      3       11           0.001359506   -0.005399635    0.000202874
      4       11           0.001936543    0.002130056   -0.001153344
      5       11          -0.002357960   -0.002479482    0.001458726
      6       11           0.000421460    0.000349431   -0.000305394
      7       11          -0.000000037    0.000000011   -0.000000002
 -------------------------------------------------------------------
 Cartesian Forces:  Max     0.005399668 RMS     0.002022934
 Z-matrix is all fixed cartesians, so copy forces.
 Force constants in Cartesian coordinates: 
                1             2             3             4             5 
      1  0.100000D+01
      2  0.000000D+00  0.100000D+01
      3  0.000000D+00  0.000000D+00  0.100000D+01
      4  0.000000D+00  0.000000D+00  0.000000D+00  0.121021D-02
      5  0.000000D+00  0.000000D+00  0.000000D+00 -0.480707D-02  0.190942D-01
      6  0.000000D+00  0.000000D+00  0.000000D+00  0.180526D-03 -0.717069D-03
      7  0.000000D+00  0.000000D+00  0.000000D+00 -0.121021D-02  0.480707D-02
      8  0.000000D+00  0.000000D+00  0.000000D+00  0.480707D-02 -0.190942D-01
      9  0.000000D+00  0.000000D+00  0.000000D+00 -0.180526D-03  0.717069D-03
     10  0.000000D+00  0.000000D+00  0.000000D+00  0.000000D+00  0.000000D+00
     11  0.000000D+00  0.000000D+00  0.000000D+00  0.000000D+00  0.000000D+00
     12  0.000000D+00  0.000000D+00  0.000000D+00  0.000000D+00  0.000000D+00
     13  0.000000D+00  0.000000D+00  0.000000D+00  0.000000D+00  0.000000D+00
     14  0.000000D+00  0.000000D+00  0.000000D+00  0.000000D+00  0.000000D+00
     15  0.000000D+00  0.000000D+00  0.000000D+00  0.000000D+00  0.000000D+00
     16  0.000000D+00  0.000000D+00  0.000000D+00  0.000000D+00  0.000000D+00
     17  0.000000D+00  0.000000D+00  0.000000D+00  0.000000D+00  0.000000D+00
     18  0.000000D+00  0.000000D+00  0.000000D+00  0.000000D+00  0.000000D+00
     19  0.000000D+00  0.000000D+00  0.000000D+00  0.000000D+00  0.000000D+00
     20  0.000000D+00  0.000000D+00  0.000000D+00  0.000000D+00  0.000000D+00
     21  0.000000D+00  0.000000D+00  0.000000D+00  0.000000D+00  0.000000D+00
                6             7             8             9            10 
      6  0.269291D-04
      7 -0.180526D-03  0.121021D-02
      8  0.717069D-03 -0.480707D-02  0.190942D-01
      9 -0.269291D-04  0.180526D-03 -0.717069D-03  0.269291D-04
     10  0.000000D+00  0.000000D+00  0.000000D+00  0.000000D+00  0.142854D-01
     11  0.000000D+00  0.000000D+00  0.000000D+00  0.000000D+00  0.133618D-01
     12  0.000000D+00  0.000000D+00  0.000000D+00  0.000000D+00 -0.963234D-02
     13  0.000000D+00  0.000000D+00  0.000000D+00  0.000000D+00 -0.147985D-01
     14  0.000000D+00  0.000000D+00  0.000000D+00  0.000000D+00 -0.116688D-01
     15  0.000000D+00  0.000000D+00  0.000000D+00  0.000000D+00  0.110174D-01
     16  0.000000D+00  0.000000D+00  0.000000D+00  0.000000D+00  0.513102D-03
     17  0.000000D+00  0.000000D+00  0.000000D+00  0.000000D+00 -0.169302D-02
     18  0.000000D+00  0.000000D+00  0.000000D+00  0.000000D+00 -0.138502D-02
     19  0.000000D+00  0.000000D+00  0.000000D+00  0.000000D+00  0.000000D+00
     20  0.000000D+00  0.000000D+00  0.000000D+00  0.000000D+00  0.000000D+00
     21  0.000000D+00  0.000000D+00  0.000000D+00  0.000000D+00  0.000000D+00
               11            12            13            14            15 
     11  0.199200D-01
     12 -0.546050D-02  0.819195D-02
     13 -0.123352D-01  0.106987D-01  0.254552D-01
     14 -0.233073D-01  0.194194D-02  0.181875D-01  0.377833D-01
     15  0.268935D-02 -0.110704D-01 -0.198522D-01 -0.233093D-02  0.211504D-01
     16 -0.102661D-02 -0.106636D-02 -0.106567D-01 -0.651876D-02  0.883482D-02
     17  0.338739D-02  0.351855D-02 -0.585235D-02 -0.144760D-01 -0.358419D-03
     18  0.277115D-02  0.287845D-02  0.915348D-02  0.388983D-03 -0.100800D-01
     19  0.000000D+00  0.000000D+00  0.000000D+00  0.000000D+00  0.000000D+00
     20  0.000000D+00  0.000000D+00  0.000000D+00  0.000000D+00  0.000000D+00
     21  0.000000D+00  0.000000D+00  0.000000D+00  0.000000D+00  0.000000D+00
               16            17            18            19            20 
     16  0.101436D-01
     17  0.754537D-02  0.110886D-01
     18 -0.776846D-02 -0.316013D-02  0.720152D-02
     19  0.000000D+00  0.000000D+00  0.000000D+00  0.100000D+01
     20  0.000000D+00  0.000000D+00  0.000000D+00  0.000000D+00  0.100000D+01
     21  0.000000D+00  0.000000D+00  0.000000D+00  0.000000D+00  0.000000D+00
               21 
     21  0.100000D+01
 Leave Link  716 at Tue Nov 21 11:50:29 2023, MaxMem=   104857600 cpu:               0.9 elap:               0.3
 (Enter /home/sekinelabo/g16/l103.exe)

 GradGradGradGradGradGradGradGradGradGradGradGradGradGradGradGradGradGrad
 Berny optimization.
 Search for a local minimum.
 Step number   1 out of a maximum of    2
 All quantities printed in internal units (Hartrees-Bohrs-Radians)
 Second derivative matrix not updated -- first step.
 ITU=  0
     Eigenvalues ---   -0.00000   0.00000   0.00000   0.00000   0.00000
     Eigenvalues ---    0.01925   0.02624   0.04066   0.04168   0.08730
     Eigenvalues ---    0.44600   0.50376   0.71429   0.80531   1.00000
 Eigenvalue     1 is  -5.55D-16 should be greater than     0.000000 Eigenvector:
                          Z4        X5        Z3        X4        Z5
   1                    0.55653  -0.43500  -0.37386   0.35376  -0.22696
                          Z6        Y5        Z2        X6        X3
   1                    0.22277   0.19981  -0.17848   0.15306  -0.12207
 Eigenvalue     2 is   0.00D+00 Eigenvector:
                          Z6        Z4        X6        X2        X4
   1                    0.69752  -0.45530   0.41451  -0.20438  -0.18096
                          Z3        Y6        Y2        X5        Y5
   1                   -0.14897   0.09704  -0.08235  -0.07801   0.06722
 Eigenvalue     3 is   2.22D-16 Eigenvector:
                          X3        Z5        X2        Z3        X5
   1                    0.48681  -0.40564  -0.38358   0.37367  -0.27879
                          Y6        X6        Z6        Z2        Y3
   1                   -0.27452   0.20686  -0.18121   0.17392   0.14446
 Eigenvalue     4 is   1.33D-15 Eigenvector:
                          Z3        X2        Z5        X3        Z4
   1                    0.50681   0.42482  -0.39831  -0.33456  -0.26866
                          X5        Y4        X4        Y6        Z2
   1                   -0.25268  -0.24163   0.17997   0.16902   0.11053
 Eigenvalue     5 is   2.22D-15 Eigenvector:
                          Z2        Z3        Z5        Z4        X2
   1                    0.83900  -0.47445  -0.14480  -0.11311   0.11111
                          Z6        Y3        X5        Y5        Y4
   1                   -0.10664  -0.07785  -0.05430   0.03601   0.03554
 Angle between quadratic step and forces=  15.91 degrees.
 Linear search not attempted -- first point.
 B after Tr=    -0.000000    0.000000    0.000000
         Rot=    1.000000   -0.000000   -0.000000    0.000000 Ang=   0.00 deg.
 Variable       Old X    -DE/DX   Delta X   Delta X   Delta X     New X
                                 (Linear)    (Quad)   (Total)
    X1       16.43621  -0.00000   0.00000  -0.00000  -0.00000  16.43621
    Y1       56.10559  -0.00000   0.00000  -0.00000  -0.00000  56.10559
    Z1       55.41792  -0.00000   0.00000   0.00000   0.00000  55.41792
    X2       20.06908  -0.00136   0.00000  -0.03440  -0.03440  20.03468
    Y2        4.27348   0.00540   0.00000   0.13256   0.13256   4.40604
    Z2       55.31115  -0.00020   0.00000  -0.00581  -0.00581  55.30534
    X3       18.49061   0.00136   0.00000   0.03425   0.03425  18.52486
    Y3       10.54333  -0.00540   0.00000  -0.13251  -0.13251  10.41082
    Z3       55.07569   0.00020   0.00000   0.00594   0.00594  55.08163
    X4       13.54295   0.00194   0.00000   0.03176   0.03176  13.57471
    Y4       10.19587   0.00213   0.00000   0.03313   0.03313  10.22900
    Z4        2.03660  -0.00115   0.00000  -0.02002  -0.02002   2.01658
    X5        9.96853  -0.00236   0.00000  -0.02593  -0.02593   9.94260
    Y5        6.22005  -0.00248   0.00000  -0.02507  -0.02507   6.19499
    Z5        4.14430   0.00146   0.00000   0.01513   0.01513   4.15943
    X6        5.75261   0.00042   0.00000  -0.00568  -0.00568   5.74693
    Y6        2.52116   0.00035   0.00000  -0.00811  -0.00811   2.51305
    Z6        7.10390  -0.00031   0.00000   0.00476   0.00476   7.10865
    X7       56.16361  -0.00000   0.00000  -0.00000  -0.00000  56.16361
    Y7        1.13458   0.00000   0.00000   0.00000   0.00000   1.13458
    Z7        7.93218  -0.00000   0.00000  -0.00000  -0.00000   7.93218
         Item               Value     Threshold  Converged?
 Maximum Force            0.005400     0.000450     NO 
 RMS     Force            0.002023     0.000300     NO 
 Maximum Displacement     0.132559     0.001800     NO 
 RMS     Displacement     0.044569     0.001200     NO 
 Predicted change in Energy=-9.104293D-04
 GradGradGradGradGradGradGradGradGradGradGradGradGradGradGradGradGradGrad

 Leave Link  103 at Tue Nov 21 11:50:30 2023, MaxMem=   104857600 cpu:               3.0 elap:               1.0
 (Enter /home/sekinelabo/g16/l9999.exe)
 1\1\GINC-SEKINELABO-XA7R-R37\Force\UB3LYP\6-311+G(d)\Na7(2)\SEKINELABO
 \21-Nov-2023\0\\#P B3LYP/6-311+g(d) force\\DPGEN\\0,2\Na,8.69767,29.68
 98,29.3259\Na,10.6201,2.26143,29.2694\Na,9.78481,5.57929,29.1448\Na,7.
 16662,5.39542,1.07772\Na,5.27512,3.29151,2.19307\Na,3.04415,1.33414,3.
 75922\Na,29.7205,0.600395,4.19753\\Version=ES64L-G16RevB.01\State=2-A\
 HF=-1136.0678864\S2=1.771614\S2-1=0.\S2A=0.821794\RMSD=3.758e-09\RMSF=
 2.023e-03\Dipole=-0.0413101,0.0054363,0.049112\Quadrupole=-0.3709663,6
 .9541711,-6.5832048,2.5438721,-2.4456031,-3.6313735\PG=C01 [X(Na7)]\\@


 ALMOST ANYTHING IS EASIER TO GET INTO THAN OUT OF.

                         -- AGNES ALLEN'S LAW FROM
                PAUL DICKSON'S "THE OFFICIAL RULES"
 Job cpu time:       0 days  0 hours 12 minutes 28.2 seconds.
 Elapsed time:       0 days  0 hours 10 minutes 12.5 seconds.
 File lengths (MBytes):  RWF=     46 Int=      0 D2E=      0 Chk=      4 Scr=      1
 Normal termination of Gaussian 16 at Tue Nov 21 11:50:30 2023.
