 Entering Gaussian System, Link 0=g16
 Initial command:
 /home/sekinelabo/g16/l1.exe "/home/sekinelabo/g16temp/Gau-708793.inp" -scrdir="/home/sekinelabo/g16temp/"
 Entering Link 1 = /home/sekinelabo/g16/l1.exe PID=    708816.
  
 Copyright (c) 1988-2017, Gaussian, Inc.  All Rights Reserved.
  
 This is part of the Gaussian(R) 16 program.  It is based on
 the Gaussian(R) 09 system (copyright 2009, Gaussian, Inc.),
 the Gaussian(R) 03 system (copyright 2003, Gaussian, Inc.),
 the Gaussian(R) 98 system (copyright 1998, Gaussian, Inc.),
 the Gaussian(R) 94 system (copyright 1995, Gaussian, Inc.),
 the Gaussian 92(TM) system (copyright 1992, Gaussian, Inc.),
 the Gaussian 90(TM) system (copyright 1990, Gaussian, Inc.),
 the Gaussian 88(TM) system (copyright 1988, Gaussian, Inc.),
 the Gaussian 86(TM) system (copyright 1986, Carnegie Mellon
 University), and the Gaussian 82(TM) system (copyright 1983,
 Carnegie Mellon University). Gaussian is a federally registered
 trademark of Gaussian, Inc.
  
 This software contains proprietary and confidential information,
 including trade secrets, belonging to Gaussian, Inc.
  
 This software is provided under written license and may be
 used, copied, transmitted, or stored only in accord with that
 written license.
  
 The following legend is applicable only to US Government
 contracts under FAR:
  
                    RESTRICTED RIGHTS LEGEND
  
 Use, reproduction and disclosure by the US Government is
 subject to restrictions as set forth in subparagraphs (a)
 and (c) of the Commercial Computer Software - Restricted
 Rights clause in FAR 52.227-19.
  
 Gaussian, Inc.
 340 Quinnipiac St., Bldg. 40, Wallingford CT 06492
  
  
 ---------------------------------------------------------------
 Warning -- This program may not be used in any manner that
 competes with the business of Gaussian, Inc. or will provide
 assistance to any competitor of Gaussian, Inc.  The licensee
 of this program is prohibited from giving any competitor of
 Gaussian, Inc. access to this program.  By using this program,
 the user acknowledges that Gaussian, Inc. is engaged in the
 business of creating and licensing software in the field of
 computational chemistry and represents and warrants to the
 licensee that it is not a competitor of Gaussian, Inc. and that
 it will not use this program in any manner prohibited above.
 ---------------------------------------------------------------
  

 Cite this work as:
 Gaussian 16, Revision B.01,
 M. J. Frisch, G. W. Trucks, H. B. Schlegel, G. E. Scuseria, 
 M. A. Robb, J. R. Cheeseman, G. Scalmani, V. Barone, 
 G. A. Petersson, H. Nakatsuji, X. Li, M. Caricato, A. V. Marenich, 
 J. Bloino, B. G. Janesko, R. Gomperts, B. Mennucci, H. P. Hratchian, 
 J. V. Ortiz, A. F. Izmaylov, J. L. Sonnenberg, D. Williams-Young, 
 F. Ding, F. Lipparini, F. Egidi, J. Goings, B. Peng, A. Petrone, 
 T. Henderson, D. Ranasinghe, V. G. Zakrzewski, J. Gao, N. Rega, 
 G. Zheng, W. Liang, M. Hada, M. Ehara, K. Toyota, R. Fukuda, 
 J. Hasegawa, M. Ishida, T. Nakajima, Y. Honda, O. Kitao, H. Nakai, 
 T. Vreven, K. Throssell, J. A. Montgomery, Jr., J. E. Peralta, 
 F. Ogliaro, M. J. Bearpark, J. J. Heyd, E. N. Brothers, K. N. Kudin, 
 V. N. Staroverov, T. A. Keith, R. Kobayashi, J. Normand, 
 K. Raghavachari, A. P. Rendell, J. C. Burant, S. S. Iyengar, 
 J. Tomasi, M. Cossi, J. M. Millam, M. Klene, C. Adamo, R. Cammi, 
 J. W. Ochterski, R. L. Martin, K. Morokuma, O. Farkas, 
 J. B. Foresman, and D. J. Fox, Gaussian, Inc., Wallingford CT, 2016.
 
 ******************************************
 Gaussian 16:  ES64L-G16RevB.01 20-Dec-2017
                 6-Oct-2023 
 ******************************************
 %NProcShared=16
 Will use up to   16 processors via shared memory.
 %mem=12GB
 %Chk=checkpoint.chk
 -------------------------
 #p B3LYP/6-311+g(d) force
 -------------------------
 1/10=7,30=1,38=1/1,3;
 2/12=2,17=6,18=5,40=1/2;
 3/5=4,6=6,7=11,11=2,25=1,30=1,71=1,74=-5/1,2,3;
 4//1;
 5/5=2,38=5/2;
 6/7=2,8=2,9=2,10=2,28=1/1;
 7/29=1/1,2,3,16;
 1/10=7,30=1/3;
 99//99;
 Leave Link    1 at Fri Oct  6 21:59:34 2023, MaxMem=  1610612736 cpu:               0.6 elap:               0.3
 (Enter /home/sekinelabo/g16/l101.exe)


 Symbolic Z-matrix:
 Charge =  0 Multiplicity = 1
 Na                    0.        0.        0. 
 Na                   -4.83392   0.        0.62679 
 Na                    0.        0.        5.01575 
 Na                    1.53299  -4.74138   6.69675 
 
 ITRead=  0  0  0  0
 MicOpt= -1 -1 -1 -1
 NAtoms=      4 NQM=        4 NQMF=       0 NMMI=      0 NMMIF=      0
                NMic=       0 NMicF=      0.
                    Isotopes and Nuclear Properties:
 (Nuclear quadrupole moments (NQMom) in fm**2, nuclear magnetic moments (NMagM)
  in nuclear magnetons)

  Atom         1           2           3           4
 IAtWgt=          23          23          23          23
 AtmWgt=  22.9897697  22.9897697  22.9897697  22.9897697
 NucSpn=           3           3           3           3
 AtZEff=  -0.0000000  -0.0000000  -0.0000000  -0.0000000
 NQMom=   10.4000000  10.4000000  10.4000000  10.4000000
 NMagM=    2.2175200   2.2175200   2.2175200   2.2175200
 AtZNuc=  11.0000000  11.0000000  11.0000000  11.0000000
 Leave Link  101 at Fri Oct  6 21:59:35 2023, MaxMem=  1610612736 cpu:               2.0 elap:               0.9
 (Enter /home/sekinelabo/g16/l103.exe)

 GradGradGradGradGradGradGradGradGradGradGradGradGradGradGradGradGradGrad
 Berny optimization.
 Initialization pass.
 Trust Radius=3.00D-01 FncErr=1.00D-07 GrdErr=1.00D-07 EigMax=2.50D+02 EigMin=1.00D-04
 Number of steps in this run=      2 maximum allowed number of steps=      2.
 GradGradGradGradGradGradGradGradGradGradGradGradGradGradGradGradGradGrad

 Leave Link  103 at Fri Oct  6 21:59:35 2023, MaxMem=  1610612736 cpu:               0.5 elap:               0.3
 (Enter /home/sekinelabo/g16/l202.exe)
                          Input orientation:                          
 ---------------------------------------------------------------------
 Center     Atomic      Atomic             Coordinates (Angstroms)
 Number     Number       Type             X           Y           Z
 ---------------------------------------------------------------------
      1         11           0        0.000000    0.000000    0.000000
      2         11           0       -4.833924    0.000000    0.626787
      3         11           0        0.000000    0.000000    5.015747
      4         11           0        1.532989   -4.741384    6.696749
 ---------------------------------------------------------------------
                    Distance matrix (angstroms):
                    1          2          3          4
     1  Na   0.000000
     2  Na   4.874390   0.000000
     3  Na   5.015747   6.529149   0.000000
     4  Na   8.347288   9.993134   5.258949   0.000000
 Stoichiometry    Na4
 Framework group  C1[X(Na4)]
 Deg. of freedom     6
 Full point group                 C1      NOp   1
 Largest Abelian subgroup         C1      NOp   1
 Largest concise Abelian subgroup C1      NOp   1
                         Standard orientation:                         
 ---------------------------------------------------------------------
 Center     Atomic      Atomic             Coordinates (Angstroms)
 Number     Number       Type             X           Y           Z
 ---------------------------------------------------------------------
      1         11           0       -2.310952    2.402020   -0.701410
      2         11           0       -4.417054   -1.976778   -0.313925
      3         11           0        1.268631    0.204983    2.040365
      4         11           0        5.459375   -0.630224   -1.025029
 ---------------------------------------------------------------------
 Rotational constants (GHZ):           1.3807542           0.3541647           0.3311576
 Leave Link  202 at Fri Oct  6 21:59:36 2023, MaxMem=  1610612736 cpu:               1.1 elap:               0.7
 (Enter /home/sekinelabo/g16/l301.exe)
 Standard basis: 6-311+G(d) (5D, 7F)
 Ernie: Thresh=  0.10000D-02 Tol=  0.10000D-05 Strict=F.
 There are   124 symmetry adapted cartesian basis functions of A   symmetry.
 There are   120 symmetry adapted basis functions of A   symmetry.
   120 basis functions,   200 primitive gaussians,   124 cartesian basis functions
    22 alpha electrons       22 beta electrons
       nuclear repulsion energy        61.9626084777 Hartrees.
 IExCor=  402 DFT=T Ex+Corr=B3LYP ExCW=0 ScaHFX=  0.200000
 ScaDFX=  0.800000  0.720000  1.000000  0.810000 ScalE2=  1.000000  1.000000
 IRadAn=      5 IRanWt=     -1 IRanGd=            0 ICorTp=0 IEmpDi=  4
 NAtoms=    4 NActive=    4 NUniq=    4 SFac= 1.00D+00 NAtFMM=   60 NAOKFM=F Big=F
 Integral buffers will be    131072 words long.
 Raffenetti 2 integral format.
 Two-electron integral symmetry is turned on.
 Leave Link  301 at Fri Oct  6 21:59:36 2023, MaxMem=  1610612736 cpu:               0.8 elap:               0.5
 (Enter /home/sekinelabo/g16/l302.exe)
 NPDir=0 NMtPBC=     1 NCelOv=     1 NCel=       1 NClECP=     1 NCelD=      1
         NCelK=      1 NCelE2=     1 NClLst=     1 CellRange=     0.0.
 One-electron integrals computed using PRISM.
 One-electron integral symmetry used in STVInt
 NBasis=   120 RedAO= T EigKep=  1.41D-03  NBF=   120
 NBsUse=   120 1.00D-06 EigRej= -1.00D+00 NBFU=   120
 Precomputing XC quadrature grid using
 IXCGrd= 4 IRadAn=           5 IRanWt=          -1 IRanGd=           0 AccXCQ= 0.00D+00.
 Generated NRdTot=       0 NPtTot=           0 NUsed=           0 NTot=          32
 NSgBfM=   113   113   113   113   113 MxSgAt=     4 MxSgA2=     4.
 Leave Link  302 at Fri Oct  6 21:59:48 2023, MaxMem=  1610612736 cpu:              18.4 elap:              11.6
 (Enter /home/sekinelabo/g16/l303.exe)
 DipDrv:  MaxL=1.
 Leave Link  303 at Fri Oct  6 21:59:50 2023, MaxMem=  1610612736 cpu:               2.9 elap:               1.7
 (Enter /home/sekinelabo/g16/l401.exe)
 ExpMin= 7.60D-03 ExpMax= 3.62D+04 ExpMxC= 1.21D+03 IAcc=3 IRadAn=         5 AccDes= 0.00D+00
 Harris functional with IExCor=  402 and IRadAn=       5 diagonalized for initial guess.
 HarFok:  IExCor=  402 AccDes= 0.00D+00 IRadAn=         5 IDoV= 1 UseB2=F ITyADJ=14
 ICtDFT=  3500011 ScaDFX=  1.000000  1.000000  1.000000  1.000000
 FoFCou: FMM=F IPFlag=           0 FMFlag=      100000 FMFlg1=           0
         NFxFlg=           0 DoJE=T BraDBF=F KetDBF=T FulRan=T
         wScrn=  0.000000 ICntrl=       500 IOpCl=  0 I1Cent=   200000004 NGrid=           0
         NMat0=    1 NMatS0=      1 NMatT0=    0 NMatD0=    1 NMtDS0=    0 NMtDT0=    0
 Petite list used in FoFCou.
 Harris En= -649.029477921482    
 JPrj=0 DoOrth=F DoCkMO=F.
 Leave Link  401 at Fri Oct  6 21:59:58 2023, MaxMem=  1610612736 cpu:              13.9 elap:               8.6
 (Enter /home/sekinelabo/g16/l502.exe)
 Keep R1 ints in memory in canonical form, NReq=41581754.
 FoFCou: FMM=F IPFlag=           0 FMFlag=           0 FMFlg1=           0
         NFxFlg=           0 DoJE=F BraDBF=F KetDBF=F FulRan=T
         wScrn=  0.000000 ICntrl=       600 IOpCl=  0 I1Cent=           0 NGrid=           0
         NMat0=    1 NMatS0=   7260 NMatT0=    0 NMatD0=    1 NMtDS0=    0 NMtDT0=    0
 Symmetry not used in FoFCou.
 Two-electron integral symmetry not used.
 Closed shell SCF:
 Using DIIS extrapolation, IDIIS=  1040.
 NGot=  1610612736 LenX=  1584221388 LenY=  1584205571
 Requested convergence on RMS density matrix=1.00D-08 within 128 cycles.
 Requested convergence on MAX density matrix=1.00D-06.
 Requested convergence on             energy=1.00D-06.
 No special actions if energy rises.

 Cycle   1  Pass 1  IDiag  1:
 E= -649.140016997516    
 DIIS: error= 1.31D-02 at cycle   1 NSaved=   1.
 NSaved= 1 IEnMin= 1 EnMin= -649.140016997516     IErMin= 1 ErrMin= 1.31D-02
 ErrMax= 1.31D-02  0.00D+00 EMaxC= 1.00D-01 BMatC= 2.72D-02 BMatP= 2.72D-02
 IDIUse=3 WtCom= 8.69D-01 WtEn= 1.31D-01
 Coeff-Com:  0.100D+01
 Coeff-En:   0.100D+01
 Coeff:      0.100D+01
 Gap=     0.022 Goal=   None    Shift=    0.000
 GapD=    0.022 DampG=0.250 DampE=0.500 DampFc=0.2500 IDamp=-1.
 Damping current iteration by 2.50D-01
 RMSDP=3.43D-03 MaxDP=1.81D-01              OVMax= 3.48D-01

 Cycle   2  Pass 1  IDiag  1:
 E= -649.143696235632     Delta-E=       -0.003679238116 Rises=F Damp=T
 DIIS: error= 9.10D-03 at cycle   2 NSaved=   2.
 NSaved= 2 IEnMin= 2 EnMin= -649.143696235632     IErMin= 2 ErrMin= 9.10D-03
 ErrMax= 9.10D-03  0.00D+00 EMaxC= 1.00D-01 BMatC= 1.03D-02 BMatP= 2.72D-02
 IDIUse=3 WtCom= 9.09D-01 WtEn= 9.10D-02
 Coeff-Com: -0.120D+01 0.220D+01
 Coeff-En:   0.000D+00 0.100D+01
 Coeff:     -0.109D+01 0.209D+01
 Gap=     0.029 Goal=   None    Shift=    0.000
 RMSDP=4.00D-03 MaxDP=2.20D-01 DE=-3.68D-03 OVMax= 4.60D-01

 Cycle   3  Pass 1  IDiag  1:
 E= -649.101313704431     Delta-E=        0.042382531202 Rises=F Damp=F
 DIIS: error= 7.83D-03 at cycle   3 NSaved=   3.
 NSaved= 3 IEnMin= 2 EnMin= -649.143696235632     IErMin= 3 ErrMin= 7.83D-03
 ErrMax= 7.83D-03  0.00D+00 EMaxC= 1.00D-01 BMatC= 4.88D-03 BMatP= 1.03D-02
 IDIUse=3 WtCom= 9.22D-01 WtEn= 7.83D-02
 Coeff-Com: -0.731D+00 0.131D+01 0.423D+00
 Coeff-En:   0.000D+00 0.944D+00 0.557D-01
 Coeff:     -0.674D+00 0.128D+01 0.394D+00
 Gap=     0.031 Goal=   None    Shift=    0.000
 RMSDP=6.45D-03 MaxDP=3.93D-01 DE= 4.24D-02 OVMax= 6.84D-01

 Cycle   4  Pass 1  IDiag  1:
 E= -649.109904936072     Delta-E=       -0.008591231642 Rises=F Damp=F
 DIIS: error= 8.44D-03 at cycle   4 NSaved=   4.
 NSaved= 4 IEnMin= 2 EnMin= -649.143696235632     IErMin= 3 ErrMin= 7.83D-03
 ErrMax= 8.44D-03  0.00D+00 EMaxC= 1.00D-01 BMatC= 4.04D-03 BMatP= 4.88D-03
 IDIUse=3 WtCom= 9.16D-01 WtEn= 8.44D-02
 EnCoef did     4 forward-backward iterations
 Coeff-Com: -0.588D-01 0.148D+00 0.442D+00 0.468D+00
 Coeff-En:   0.000D+00 0.362D+00 0.310D+00 0.328D+00
 Coeff:     -0.539D-01 0.166D+00 0.431D+00 0.456D+00
 Gap=     0.022 Goal=   None    Shift=    0.000
 RMSDP=3.32D-03 MaxDP=1.62D-01 DE=-8.59D-03 OVMax= 3.70D-01

 Cycle   5  Pass 1  IDiag  1:
 E= -649.153047750283     Delta-E=       -0.043142814210 Rises=F Damp=F
 DIIS: error= 7.11D-04 at cycle   5 NSaved=   5.
 NSaved= 5 IEnMin= 5 EnMin= -649.153047750283     IErMin= 5 ErrMin= 7.11D-04
 ErrMax= 7.11D-04  0.00D+00 EMaxC= 1.00D-01 BMatC= 3.71D-05 BMatP= 4.04D-03
 IDIUse=3 WtCom= 9.93D-01 WtEn= 7.11D-03
 Coeff-Com:  0.219D-01-0.285D-01 0.503D-01 0.686D-01 0.888D+00
 Coeff-En:   0.000D+00 0.000D+00 0.000D+00 0.000D+00 0.100D+01
 Coeff:      0.217D-01-0.283D-01 0.500D-01 0.681D-01 0.888D+00
 Gap=     0.026 Goal=   None    Shift=    0.000
 RMSDP=6.16D-04 MaxDP=2.97D-02 DE=-4.31D-02 OVMax= 6.27D-02

 Cycle   6  Pass 1  IDiag  1:
 E= -649.152425372109     Delta-E=        0.000622378173 Rises=F Damp=F
 DIIS: error= 1.32D-03 at cycle   6 NSaved=   6.
 NSaved= 6 IEnMin= 5 EnMin= -649.153047750283     IErMin= 5 ErrMin= 7.11D-04
 ErrMax= 1.32D-03  0.00D+00 EMaxC= 1.00D-01 BMatC= 1.12D-04 BMatP= 3.71D-05
 IDIUse=3 WtCom= 9.93D-01 WtEn= 7.11D-03
 Coeff-Com:  0.114D-01-0.158D-01 0.106D-01 0.271D-01 0.649D+00 0.317D+00
 Coeff-En:   0.000D+00 0.000D+00 0.000D+00 0.000D+00 0.737D+00 0.263D+00
 Coeff:      0.113D-01-0.157D-01 0.105D-01 0.269D-01 0.650D+00 0.317D+00
 Gap=     0.026 Goal=   None    Shift=    0.000
 RMSDP=5.74D-04 MaxDP=2.94D-02 DE= 6.22D-04 OVMax= 4.57D-02

 Cycle   7  Pass 1  IDiag  1:
 E= -649.153286831517     Delta-E=       -0.000861459408 Rises=F Damp=F
 DIIS: error= 3.39D-04 at cycle   7 NSaved=   7.
 NSaved= 7 IEnMin= 7 EnMin= -649.153286831517     IErMin= 7 ErrMin= 3.39D-04
 ErrMax= 3.39D-04  0.00D+00 EMaxC= 1.00D-01 BMatC= 8.52D-06 BMatP= 3.71D-05
 IDIUse=3 WtCom= 9.97D-01 WtEn= 3.39D-03
 Coeff-Com: -0.196D-02 0.266D-02-0.114D-01 0.725D-03 0.128D+00 0.214D+00
 Coeff-Com:  0.668D+00
 Coeff-En:   0.000D+00 0.000D+00 0.000D+00 0.000D+00 0.000D+00 0.881D-01
 Coeff-En:   0.912D+00
 Coeff:     -0.195D-02 0.265D-02-0.114D-01 0.723D-03 0.128D+00 0.214D+00
 Coeff:      0.669D+00
 Gap=     0.027 Goal=   None    Shift=    0.000
 RMSDP=1.19D-04 MaxDP=5.66D-03 DE=-8.61D-04 OVMax= 1.37D-02

 Cycle   8  Pass 1  IDiag  1:
 E= -649.153341913712     Delta-E=       -0.000055082196 Rises=F Damp=F
 DIIS: error= 1.35D-04 at cycle   8 NSaved=   8.
 NSaved= 8 IEnMin= 8 EnMin= -649.153341913712     IErMin= 8 ErrMin= 1.35D-04
 ErrMax= 1.35D-04  0.00D+00 EMaxC= 1.00D-01 BMatC= 9.93D-07 BMatP= 8.52D-06
 IDIUse=3 WtCom= 9.99D-01 WtEn= 1.35D-03
 Coeff-Com: -0.249D-02 0.362D-02-0.884D-02 0.426D-02 0.143D-01 0.581D-01
 Coeff-Com:  0.221D+00 0.710D+00
 Coeff-En:   0.000D+00 0.000D+00 0.000D+00 0.000D+00 0.000D+00 0.000D+00
 Coeff-En:   0.000D+00 0.100D+01
 Coeff:     -0.248D-02 0.361D-02-0.883D-02 0.425D-02 0.143D-01 0.580D-01
 Coeff:      0.221D+00 0.710D+00
 Gap=     0.027 Goal=   None    Shift=    0.000
 RMSDP=3.92D-05 MaxDP=1.40D-03 DE=-5.51D-05 OVMax= 3.35D-03

 Cycle   9  Pass 1  IDiag  1:
 E= -649.153350332572     Delta-E=       -0.000008418860 Rises=F Damp=F
 DIIS: error= 6.43D-05 at cycle   9 NSaved=   9.
 NSaved= 9 IEnMin= 9 EnMin= -649.153350332572     IErMin= 9 ErrMin= 6.43D-05
 ErrMax= 6.43D-05  0.00D+00 EMaxC= 1.00D-01 BMatC= 3.27D-07 BMatP= 9.93D-07
 IDIUse=1 WtCom= 1.00D+00 WtEn= 0.00D+00
 Coeff-Com: -0.132D-02 0.189D-02-0.448D-02 0.437D-02-0.214D-01-0.171D-01
 Coeff-Com:  0.296D-02 0.180D+00 0.855D+00
 Coeff:     -0.132D-02 0.189D-02-0.448D-02 0.437D-02-0.214D-01-0.171D-01
 Coeff:      0.296D-02 0.180D+00 0.855D+00
 Gap=     0.027 Goal=   None    Shift=    0.000
 RMSDP=1.95D-05 MaxDP=5.88D-04 DE=-8.42D-06 OVMax= 1.95D-03

 Cycle  10  Pass 1  IDiag  1:
 E= -649.153351649194     Delta-E=       -0.000001316622 Rises=F Damp=F
 DIIS: error= 5.22D-05 at cycle  10 NSaved=  10.
 NSaved=10 IEnMin=10 EnMin= -649.153351649194     IErMin=10 ErrMin= 5.22D-05
 ErrMax= 5.22D-05  0.00D+00 EMaxC= 1.00D-01 BMatC= 1.68D-07 BMatP= 3.27D-07
 IDIUse=1 WtCom= 1.00D+00 WtEn= 0.00D+00
 Coeff-Com: -0.583D-03 0.822D-03-0.176D-02 0.337D-02-0.150D-01-0.246D-01
 Coeff-Com: -0.446D-01-0.129D+00 0.336D+00 0.876D+00
 Coeff:     -0.583D-03 0.822D-03-0.176D-02 0.337D-02-0.150D-01-0.246D-01
 Coeff:     -0.446D-01-0.129D+00 0.336D+00 0.876D+00
 Gap=     0.027 Goal=   None    Shift=    0.000
 RMSDP=1.27D-05 MaxDP=5.41D-04 DE=-1.32D-06 OVMax= 1.29D-03

 Cycle  11  Pass 1  IDiag  1:
 E= -649.153352769519     Delta-E=       -0.000001120325 Rises=F Damp=F
 DIIS: error= 2.68D-05 at cycle  11 NSaved=  11.
 NSaved=11 IEnMin=11 EnMin= -649.153352769519     IErMin=11 ErrMin= 2.68D-05
 ErrMax= 2.68D-05  0.00D+00 EMaxC= 1.00D-01 BMatC= 4.19D-08 BMatP= 1.68D-07
 IDIUse=1 WtCom= 1.00D+00 WtEn= 0.00D+00
 Coeff-Com: -0.145D-03 0.178D-03-0.630D-03 0.129D-02 0.494D-02 0.405D-02
 Coeff-Com:  0.142D-01-0.801D-01-0.463D-01-0.962D-01 0.120D+01
 Coeff:     -0.145D-03 0.178D-03-0.630D-03 0.129D-02 0.494D-02 0.405D-02
 Coeff:      0.142D-01-0.801D-01-0.463D-01-0.962D-01 0.120D+01
 Gap=     0.027 Goal=   None    Shift=    0.000
 RMSDP=6.34D-06 MaxDP=3.05D-04 DE=-1.12D-06 OVMax= 7.25D-04

 Cycle  12  Pass 1  IDiag  1:
 E= -649.153353100113     Delta-E=       -0.000000330594 Rises=F Damp=F
 DIIS: error= 9.50D-06 at cycle  12 NSaved=  12.
 NSaved=12 IEnMin=12 EnMin= -649.153353100113     IErMin=12 ErrMin= 9.50D-06
 ErrMax= 9.50D-06  0.00D+00 EMaxC= 1.00D-01 BMatC= 6.23D-09 BMatP= 4.19D-08
 IDIUse=1 WtCom= 1.00D+00 WtEn= 0.00D+00
 Coeff-Com:  0.366D-04-0.532D-04-0.139D-03 0.223D-03 0.110D-02-0.911D-03
 Coeff-Com:  0.185D-02 0.157D-01 0.257D-02-0.866D-01-0.323D+00 0.139D+01
 Coeff:      0.366D-04-0.532D-04-0.139D-03 0.223D-03 0.110D-02-0.911D-03
 Coeff:      0.185D-02 0.157D-01 0.257D-02-0.866D-01-0.323D+00 0.139D+01
 Gap=     0.027 Goal=   None    Shift=    0.000
 RMSDP=3.08D-06 MaxDP=1.76D-04 DE=-3.31D-07 OVMax= 3.55D-04

 Cycle  13  Pass 1  IDiag  1:
 E= -649.153353153854     Delta-E=       -0.000000053741 Rises=F Damp=F
 DIIS: error= 1.72D-06 at cycle  13 NSaved=  13.
 NSaved=13 IEnMin=13 EnMin= -649.153353153854     IErMin=13 ErrMin= 1.72D-06
 ErrMax= 1.72D-06  0.00D+00 EMaxC= 1.00D-01 BMatC= 2.58D-10 BMatP= 6.23D-09
 IDIUse=1 WtCom= 1.00D+00 WtEn= 0.00D+00
 Coeff-Com:  0.741D-05-0.899D-05-0.219D-04 0.334D-04-0.166D-03-0.992D-03
 Coeff-Com: -0.117D-02 0.457D-02 0.448D-02 0.933D-02-0.128D+00 0.795D-01
 Coeff-Com:  0.103D+01
 Coeff:      0.741D-05-0.899D-05-0.219D-04 0.334D-04-0.166D-03-0.992D-03
 Coeff:     -0.117D-02 0.457D-02 0.448D-02 0.933D-02-0.128D+00 0.795D-01
 Coeff:      0.103D+01
 Gap=     0.027 Goal=   None    Shift=    0.000
 RMSDP=6.54D-07 MaxDP=3.75D-05 DE=-5.37D-08 OVMax= 6.93D-05

 Cycle  14  Pass 1  IDiag  1:
 E= -649.153353156012     Delta-E=       -0.000000002157 Rises=F Damp=F
 DIIS: error= 2.94D-07 at cycle  14 NSaved=  14.
 NSaved=14 IEnMin=14 EnMin= -649.153353156012     IErMin=14 ErrMin= 2.94D-07
 ErrMax= 2.94D-07  0.00D+00 EMaxC= 1.00D-01 BMatC= 9.32D-12 BMatP= 2.58D-10
 IDIUse=1 WtCom= 1.00D+00 WtEn= 0.00D+00
 Coeff-Com: -0.185D-05 0.255D-05-0.410D-05 0.328D-05-0.638D-04-0.115D-03
 Coeff-Com: -0.865D-04-0.140D-03 0.910D-03 0.425D-02 0.417D-02-0.702D-01
 Coeff-Com:  0.364D-01 0.102D+01
 Coeff:     -0.185D-05 0.255D-05-0.410D-05 0.328D-05-0.638D-04-0.115D-03
 Coeff:     -0.865D-04-0.140D-03 0.910D-03 0.425D-02 0.417D-02-0.702D-01
 Coeff:      0.364D-01 0.102D+01
 Gap=     0.027 Goal=   None    Shift=    0.000
 RMSDP=1.46D-07 MaxDP=8.06D-06 DE=-2.16D-09 OVMax= 1.37D-05

 Cycle  15  Pass 1  IDiag  1:
 E= -649.153353156095     Delta-E=       -0.000000000083 Rises=F Damp=F
 DIIS: error= 6.26D-08 at cycle  15 NSaved=  15.
 NSaved=15 IEnMin=15 EnMin= -649.153353156095     IErMin=15 ErrMin= 6.26D-08
 ErrMax= 6.26D-08  0.00D+00 EMaxC= 1.00D-01 BMatC= 2.34D-13 BMatP= 9.32D-12
 IDIUse=1 WtCom= 1.00D+00 WtEn= 0.00D+00
 Coeff-Com: -0.489D-06 0.660D-06 0.143D-05-0.214D-05-0.160D-04-0.172D-05
 Coeff-Com: -0.135D-04-0.467D-06-0.617D-04-0.325D-04 0.136D-02-0.104D-01
 Coeff-Com: -0.242D-01 0.119D+00 0.915D+00
 Coeff:     -0.489D-06 0.660D-06 0.143D-05-0.214D-05-0.160D-04-0.172D-05
 Coeff:     -0.135D-04-0.467D-06-0.617D-04-0.325D-04 0.136D-02-0.104D-01
 Coeff:     -0.242D-01 0.119D+00 0.915D+00
 Gap=     0.027 Goal=   None    Shift=    0.000
 RMSDP=3.80D-08 MaxDP=2.19D-06 DE=-8.29D-11 OVMax= 4.31D-06

 Cycle  16  Pass 1  IDiag  1:
 E= -649.153353156094     Delta-E=        0.000000000000 Rises=F Damp=F
 DIIS: error= 3.95D-08 at cycle  16 NSaved=  16.
 NSaved=16 IEnMin=15 EnMin= -649.153353156095     IErMin=16 ErrMin= 3.95D-08
 ErrMax= 3.95D-08  0.00D+00 EMaxC= 1.00D-01 BMatC= 9.52D-14 BMatP= 2.34D-13
 IDIUse=1 WtCom= 1.00D+00 WtEn= 0.00D+00
 Coeff-Com: -0.285D-06 0.356D-06-0.127D-06 0.374D-06 0.124D-05 0.978D-05
 Coeff-Com:  0.190D-04-0.304D-04 0.502D-05-0.362D-03 0.972D-03 0.315D-02
 Coeff-Com: -0.989D-02-0.287D-01 0.352D+00 0.683D+00
 Coeff:     -0.285D-06 0.356D-06-0.127D-06 0.374D-06 0.124D-05 0.978D-05
 Coeff:      0.190D-04-0.304D-04 0.502D-05-0.362D-03 0.972D-03 0.315D-02
 Coeff:     -0.989D-02-0.287D-01 0.352D+00 0.683D+00
 Gap=     0.027 Goal=   None    Shift=    0.000
 RMSDP=1.59D-08 MaxDP=9.55D-07 DE= 1.14D-13 OVMax= 1.76D-06

 Cycle  17  Pass 1  IDiag  1:
 E= -649.153353156099     Delta-E=       -0.000000000004 Rises=F Damp=F
 DIIS: error= 3.39D-09 at cycle  17 NSaved=  17.
 NSaved=17 IEnMin=17 EnMin= -649.153353156099     IErMin=17 ErrMin= 3.39D-09
 ErrMax= 3.39D-09  0.00D+00 EMaxC= 1.00D-01 BMatC= 8.70D-16 BMatP= 9.52D-14
 IDIUse=1 WtCom= 1.00D+00 WtEn= 0.00D+00
 Large coefficients: NSaved= 17 BigCof=    0.00 CofMax=   10.00 Det=-1.49D-15
 Inversion failed.  Reducing to 16 matrices.
 Large coefficients: NSaved= 16 BigCof=    0.00 CofMax=   10.00 Det=-1.54D-15
 Inversion failed.  Reducing to 15 matrices.
 Coeff-Com:  0.397D-07-0.541D-07 0.355D-06 0.822D-06 0.870D-06 0.103D-04
 Coeff-Com: -0.153D-04 0.686D-05-0.161D-03 0.855D-03 0.386D-03-0.150D-01
 Coeff-Com: -0.219D-01 0.708D-01 0.965D+00
 Coeff:      0.397D-07-0.541D-07 0.355D-06 0.822D-06 0.870D-06 0.103D-04
 Coeff:     -0.153D-04 0.686D-05-0.161D-03 0.855D-03 0.386D-03-0.150D-01
 Coeff:     -0.219D-01 0.708D-01 0.965D+00
 Gap=     0.027 Goal=   None    Shift=    0.000
 RMSDP=1.76D-09 MaxDP=8.40D-08 DE=-4.43D-12 OVMax= 1.73D-07

 SCF Done:  E(RB3LYP) =  -649.153353156     A.U. after   17 cycles
            NFock= 17  Conv=0.18D-08     -V/T= 2.0031
 KE= 6.471750356343D+02 PE=-1.682489969888D+03 EE= 3.241989726199D+02
 Leave Link  502 at Fri Oct  6 22:01:52 2023, MaxMem=  1610612736 cpu:             182.2 elap:             113.5
 (Enter /home/sekinelabo/g16/l601.exe)
 Copying SCF densities to generalized density rwf, IOpCl= 0 IROHF=0.

 **********************************************************************

            Population analysis using the SCF Density.

 **********************************************************************

 Orbital symmetries:
       Occupied  (A) (A) (A) (A) (A) (A) (A) (A) (A) (A) (A) (A)
                 (A) (A) (A) (A) (A) (A) (A) (A) (A) (A)
       Virtual   (A) (A) (A) (A) (A) (A) (A) (A) (A) (A) (A) (A)
                 (A) (A) (A) (A) (A) (A) (A) (A) (A) (A) (A) (A)
                 (A) (A) (A) (A) (A) (A) (A) (A) (A) (A) (A) (A)
                 (A) (A) (A) (A) (A) (A) (A) (A) (A) (A) (A) (A)
                 (A) (A) (A) (A) (A) (A) (A) (A) (A) (A) (A) (A)
                 (A) (A) (A) (A) (A) (A) (A) (A) (A) (A) (A) (A)
                 (A) (A) (A) (A) (A) (A) (A) (A) (A) (A) (A) (A)
                 (A) (A) (A) (A) (A) (A) (A) (A) (A) (A) (A) (A)
                 (A) (A)
 The electronic state is 1-A.
 Alpha  occ. eigenvalues --  -38.46569 -38.46375 -38.46107 -38.45676  -2.22236
 Alpha  occ. eigenvalues --   -2.22047  -2.21773  -2.21351  -1.15920  -1.15900
 Alpha  occ. eigenvalues --   -1.15874  -1.15726  -1.15726  -1.15680  -1.15457
 Alpha  occ. eigenvalues --   -1.15441  -1.15410  -1.15028  -1.15028  -1.14991
 Alpha  occ. eigenvalues --   -0.12628  -0.11032
 Alpha virt. eigenvalues --   -0.08370  -0.07416  -0.02612  -0.02583  -0.02392
 Alpha virt. eigenvalues --   -0.01780  -0.01453  -0.01176  -0.00914  -0.00422
 Alpha virt. eigenvalues --   -0.00063   0.00178   0.00438   0.00483   0.00761
 Alpha virt. eigenvalues --    0.01328   0.01430   0.01601   0.01640   0.01724
 Alpha virt. eigenvalues --    0.01853   0.01904   0.02042   0.02195   0.02373
 Alpha virt. eigenvalues --    0.02580   0.02829   0.02894   0.03083   0.03206
 Alpha virt. eigenvalues --    0.06844   0.07183   0.07588   0.07886   0.07904
 Alpha virt. eigenvalues --    0.08206   0.08319   0.08389   0.08583   0.08880
 Alpha virt. eigenvalues --    0.09057   0.09255   0.10454   0.10896   0.11907
 Alpha virt. eigenvalues --    0.12380   0.31838   0.32844   0.33361   0.33412
 Alpha virt. eigenvalues --    0.33673   0.33999   0.34333   0.34384   0.34519
 Alpha virt. eigenvalues --    0.34809   0.34839   0.34890   0.35317   0.35326
 Alpha virt. eigenvalues --    0.35465   0.35477   0.35654   0.36434   0.36849
 Alpha virt. eigenvalues --    0.37204   0.42003   0.42153   0.42852   0.42922
 Alpha virt. eigenvalues --    0.43123   0.43812   0.44228   0.44736   0.45529
 Alpha virt. eigenvalues --    0.46386   0.46676   0.47754   2.00365   2.01510
 Alpha virt. eigenvalues --    2.02389   2.02575   4.42020   4.42146   4.42699
 Alpha virt. eigenvalues --    4.42839   4.42874   4.43145   4.43486   4.43568
 Alpha virt. eigenvalues --    4.43924   4.44227   4.44484   4.45253  96.19398
 Alpha virt. eigenvalues --   96.20636  96.21697  96.21987
          Condensed to atoms (all electrons):
               1          2          3          4
     1  Na  10.794706   0.177917   0.048006  -0.026738
     2  Na   0.177917  10.866238  -0.067127  -0.023356
     3  Na   0.048006  -0.067127  10.912550   0.166010
     4  Na  -0.026738  -0.023356   0.166010  10.877084
 Mulliken charges:
               1
     1  Na   0.006108
     2  Na   0.046329
     3  Na  -0.059439
     4  Na   0.007001
 Sum of Mulliken charges =  -0.00000
 Mulliken charges with hydrogens summed into heavy atoms:
               1
     1  Na   0.006108
     2  Na   0.046329
     3  Na  -0.059439
     4  Na   0.007001
 Electronic spatial extent (au):  <R**2>=           2923.2433
 Charge=             -0.0000 electrons
 Dipole moment (field-independent basis, Debye):
    X=             -1.2862    Y=              0.0669    Z=             -0.1871  Tot=              1.3015
 Quadrupole moment (field-independent basis, Debye-Ang):
   XX=            -41.0273   YY=            -35.1121   ZZ=            -41.7619
   XY=              2.2207   XZ=             -3.6250   YZ=             -1.6987
 Traceless Quadrupole moment (field-independent basis, Debye-Ang):
   XX=             -1.7269   YY=              4.1883   ZZ=             -2.4615
   XY=              2.2207   XZ=             -3.6250   YZ=             -1.6987
 Octapole moment (field-independent basis, Debye-Ang**2):
  XXX=             11.9816  YYY=             13.4067  ZZZ=              8.1322  XYY=            -42.2826
  XXY=            -37.3648  XXZ=            -31.6386  XZZ=              3.9895  YZZ=              2.1677
  YYZ=            -10.0561  XYZ=              6.7035
 Hexadecapole moment (field-independent basis, Debye-Ang**3):
 XXXX=          -3633.6659 YYYY=           -718.8278 ZZZZ=           -548.8452 XXXY=            109.6427
 XXXZ=           -184.7414 YYYX=              7.2378 YYYZ=            -26.8606 ZZZX=            -15.8496
 ZZZY=             -9.5261 XXYY=           -696.2926 XXZZ=           -765.5613 YYZZ=           -223.7702
 XXYZ=             16.0185 YYXZ=             13.0694 ZZXY=             -2.2373
 N-N= 6.196260847774D+01 E-N=-1.682489970010D+03  KE= 6.471750356343D+02
 No NMR shielding tensors so no spin-rotation constants.
 Leave Link  601 at Fri Oct  6 22:01:57 2023, MaxMem=  1610612736 cpu:               8.2 elap:               5.2
 (Enter /home/sekinelabo/g16/l701.exe)
 ... and contract with generalized density number  0.
 Compute integral first derivatives.
 Leave Link  701 at Fri Oct  6 22:02:02 2023, MaxMem=  1610612736 cpu:               7.0 elap:               4.2
 (Enter /home/sekinelabo/g16/l702.exe)
 L702 exits ... SP integral derivatives will be done elsewhere.
 Leave Link  702 at Fri Oct  6 22:02:02 2023, MaxMem=  1610612736 cpu:               0.5 elap:               0.4
 (Enter /home/sekinelabo/g16/l703.exe)
 Integral derivatives from FoFJK, PRISM(SPDF).
 Compute integral first derivatives, UseDBF=F ICtDFT=           0.
 Calling FoFJK, ICntrl=      2127 FMM=F ISym2X=0 I1Cent= 0 IOpClX= 0 NMat=1 NMatS=1 NMatT=0.
 FoFJK:  IHMeth= 1 ICntrl=    2127 DoSepK=F KAlg= 0 I1Cent=           0 FoldK=F
 IRaf=         0 NMat=       1 IRICut=       1 DoRegI=T DoRafI=F ISym2E= 0 IDoP0=0 IntGTp=1.
 FoFCou: FMM=F IPFlag=           0 FMFlag=      100000 FMFlg1=         800
         NFxFlg=           0 DoJE=F BraDBF=F KetDBF=F FulRan=T
         wScrn=  0.000000 ICntrl=      2127 IOpCl=  0 I1Cent=           0 NGrid=           0
         NMat0=    1 NMatS0=      1 NMatT0=    0 NMatD0=    1 NMtDS0=    0 NMtDT0=    0
 Symmetry not used in FoFCou.
 Leave Link  703 at Fri Oct  6 22:02:10 2023, MaxMem=  1610612736 cpu:              12.9 elap:               8.1
 (Enter /home/sekinelabo/g16/l716.exe)
 Dipole        =-5.06032307D-01 2.63014552D-02-7.35965845D-02
 ***** Axes restored to original set *****
 -------------------------------------------------------------------
 Center     Atomic                   Forces (Hartrees/Bohr)
 Number     Number              X              Y              Z
 -------------------------------------------------------------------
      1       11          -0.006491992    0.000008017    0.003337271
      2       11           0.006523546    0.000076941   -0.000815197
      3       11           0.001544415   -0.005202044   -0.000787596
      4       11          -0.001575968    0.005117086   -0.001734479
 -------------------------------------------------------------------
 Cartesian Forces:  Max     0.006523546 RMS     0.003631505
 Z-matrix is all fixed cartesians, so copy forces.
 Force constants in Cartesian coordinates: 
                1             2             3             4             5 
      1  0.100000D+01
      2  0.000000D+00  0.100000D+01
      3  0.000000D+00  0.000000D+00  0.100000D+01
      4  0.000000D+00  0.000000D+00  0.000000D+00  0.100000D+01
      5  0.000000D+00  0.000000D+00  0.000000D+00  0.000000D+00  0.100000D+01
      6  0.000000D+00  0.000000D+00  0.000000D+00  0.000000D+00  0.000000D+00
      7  0.000000D+00  0.000000D+00  0.000000D+00  0.000000D+00  0.000000D+00
      8  0.000000D+00  0.000000D+00  0.000000D+00  0.000000D+00  0.000000D+00
      9  0.000000D+00  0.000000D+00  0.000000D+00  0.000000D+00  0.000000D+00
     10  0.000000D+00  0.000000D+00  0.000000D+00  0.000000D+00  0.000000D+00
     11  0.000000D+00  0.000000D+00  0.000000D+00  0.000000D+00  0.000000D+00
     12  0.000000D+00  0.000000D+00  0.000000D+00  0.000000D+00  0.000000D+00
                6             7             8             9            10 
      6  0.100000D+01
      7  0.000000D+00  0.100000D+01
      8  0.000000D+00  0.000000D+00  0.100000D+01
      9  0.000000D+00  0.000000D+00  0.000000D+00  0.100000D+01
     10  0.000000D+00  0.000000D+00  0.000000D+00  0.000000D+00  0.100000D+01
     11  0.000000D+00  0.000000D+00  0.000000D+00  0.000000D+00  0.000000D+00
     12  0.000000D+00  0.000000D+00  0.000000D+00  0.000000D+00  0.000000D+00
               11            12 
     11  0.100000D+01
     12  0.000000D+00  0.100000D+01
 Leave Link  716 at Fri Oct  6 22:02:11 2023, MaxMem=  1610612736 cpu:               0.8 elap:               0.6
 (Enter /home/sekinelabo/g16/l103.exe)

 GradGradGradGradGradGradGradGradGradGradGradGradGradGradGradGradGradGrad
 Berny optimization.
 Search for a local minimum.
 Step number   1 out of a maximum of    2
 All quantities printed in internal units (Hartrees-Bohrs-Radians)
 Second derivative matrix not updated -- first step.
 The second derivative matrix:
                          X1        Y1        Z1        X2        Y2
           X1           1.00000
           Y1           0.00000   1.00000
           Z1          -0.00000   0.00000   1.00000
           X2           0.00000   0.00000   0.00000   1.00000
           Y2           0.00000   0.00000   0.00000   0.00000   1.00000
           Z2           0.00000   0.00000   0.00000  -0.00000   0.00000
           X3           0.00000   0.00000   0.00000   0.00000   0.00000
           Y3           0.00000   0.00000   0.00000   0.00000   0.00000
           Z3           0.00000   0.00000   0.00000   0.00000   0.00000
           X4           0.00000   0.00000   0.00000   0.00000   0.00000
           Y4           0.00000   0.00000   0.00000   0.00000   0.00000
           Z4           0.00000   0.00000   0.00000   0.00000   0.00000
                          Z2        X3        Y3        Z3        X4
           Z2           1.00000
           X3           0.00000   1.00000
           Y3           0.00000   0.00000   1.00000
           Z3           0.00000  -0.00000   0.00000   1.00000
           X4           0.00000   0.00000   0.00000   0.00000   1.00000
           Y4           0.00000   0.00000   0.00000   0.00000   0.00000
           Z4           0.00000   0.00000   0.00000   0.00000  -0.00000
                          Y4        Z4
           Y4           1.00000
           Z4           0.00000   1.00000
 ITU=  0
     Eigenvalues ---    1.00000   1.00000   1.00000   1.00000   1.00000
     Eigenvalues ---    1.00000   1.00000   1.00000   1.00000   1.00000
     Eigenvalues ---    1.00000   1.00000
 Angle between quadratic step and forces=   0.00 degrees.
 Linear search not attempted -- first point.
 B after Tr=    -0.000000   -0.000000   -0.000000
         Rot=    1.000000    0.000000   -0.000000    0.000000 Ang=   0.00 deg.
 Variable       Old X    -DE/DX   Delta X   Delta X   Delta X     New X
                                 (Linear)    (Quad)   (Total)
    X1        0.00000  -0.00649   0.00000  -0.00649  -0.00649  -0.00649
    Y1        0.00000   0.00001   0.00000   0.00001   0.00001   0.00001
    Z1        0.00000   0.00334   0.00000   0.00334   0.00334   0.00334
    X2       -9.13479   0.00652   0.00000   0.00652   0.00652  -9.12827
    Y2       -0.00000   0.00008   0.00000   0.00008   0.00008   0.00008
    Z2        1.18446  -0.00082   0.00000  -0.00082  -0.00082   1.18364
    X3        0.00000   0.00154   0.00000   0.00154   0.00154   0.00154
    Y3       -0.00000  -0.00520   0.00000  -0.00520  -0.00520  -0.00520
    Z3        9.47839  -0.00079   0.00000  -0.00079  -0.00079   9.47760
    X4        2.89693  -0.00158   0.00000  -0.00158  -0.00158   2.89535
    Y4       -8.95992   0.00512   0.00000   0.00512   0.00512  -8.95480
    Z4       12.65502  -0.00173   0.00000  -0.00173  -0.00173  12.65329
         Item               Value     Threshold  Converged?
 Maximum Force            0.006524     0.000450     NO 
 RMS     Force            0.003632     0.000300     NO 
 Maximum Displacement     0.006524     0.001800     NO 
 RMS     Displacement     0.003632     0.001200     NO 
 Predicted change in Energy=-7.912698D-05
 GradGradGradGradGradGradGradGradGradGradGradGradGradGradGradGradGradGrad

 Leave Link  103 at Fri Oct  6 22:02:11 2023, MaxMem=  1610612736 cpu:               0.7 elap:               0.5
 (Enter /home/sekinelabo/g16/l9999.exe)
 1\1\GINC-SEKINELABO-XA7R-R37\Force\RB3LYP\6-311+G(d)\Na4\SEKINELABO\06
 -Oct-2023\0\\#p B3LYP/6-311+g(d) force\\\0,1\Na,0.,0.,0.\Na,-4.8339235
 639,0.,0.6267872599\Na,0.,0.,5.0157466113\Na,1.5329888141,-4.741384023
 7,6.6967489773\\Version=ES64L-G16RevB.01\State=1-A\HF=-649.1533532\RMS
 D=1.758e-09\RMSF=3.632e-03\Dipole=-0.2442868,0.1789471,-0.4128908\Quad
 rupole=3.4136786,-0.2801238,-3.1335547,-1.3780952,-2.3660217,-0.811674
 8\PG=C01 [X(Na4)]\\@


       THE DEATH-KNELL OF THE ATOM

 SO THE ATOMS IN TURN, WE NOW CLEARLY DISCERN,
 FLY TO BITS WITH THE UTMOST FACILITY;
 THEY WEND ON THEIR WAY, AND, IN SPLITTING, DISPLAY
 AN ABSOLUTE LACK OF STABILITY.

          SIR WM. RAMSAY, 1905
 Job cpu time:       0 days  0 hours  4 minutes 13.5 seconds.
 Elapsed time:       0 days  0 hours  2 minutes 37.8 seconds.
 File lengths (MBytes):  RWF=     10 Int=      0 D2E=      0 Chk=      2 Scr=      1
 Normal termination of Gaussian 16 at Fri Oct  6 22:02:12 2023.
 Initial command:
 /home/sekinelabo/g16/l1.exe "/home/sekinelabo/g16temp/Gau-708793.inp" -scrdir="/home/sekinelabo/g16temp/"
 Entering Link 1 = /home/sekinelabo/g16/l1.exe PID=    711880.
  
 Copyright (c) 1988-2017, Gaussian, Inc.  All Rights Reserved.
  
 This is part of the Gaussian(R) 16 program.  It is based on
 the Gaussian(R) 09 system (copyright 2009, Gaussian, Inc.),
 the Gaussian(R) 03 system (copyright 2003, Gaussian, Inc.),
 the Gaussian(R) 98 system (copyright 1998, Gaussian, Inc.),
 the Gaussian(R) 94 system (copyright 1995, Gaussian, Inc.),
 the Gaussian 92(TM) system (copyright 1992, Gaussian, Inc.),
 the Gaussian 90(TM) system (copyright 1990, Gaussian, Inc.),
 the Gaussian 88(TM) system (copyright 1988, Gaussian, Inc.),
 the Gaussian 86(TM) system (copyright 1986, Carnegie Mellon
 University), and the Gaussian 82(TM) system (copyright 1983,
 Carnegie Mellon University). Gaussian is a federally registered
 trademark of Gaussian, Inc.
  
 This software contains proprietary and confidential information,
 including trade secrets, belonging to Gaussian, Inc.
  
 This software is provided under written license and may be
 used, copied, transmitted, or stored only in accord with that
 written license.
  
 The following legend is applicable only to US Government
 contracts under FAR:
  
                    RESTRICTED RIGHTS LEGEND
  
 Use, reproduction and disclosure by the US Government is
 subject to restrictions as set forth in subparagraphs (a)
 and (c) of the Commercial Computer Software - Restricted
 Rights clause in FAR 52.227-19.
  
 Gaussian, Inc.
 340 Quinnipiac St., Bldg. 40, Wallingford CT 06492
  
  
 ---------------------------------------------------------------
 Warning -- This program may not be used in any manner that
 competes with the business of Gaussian, Inc. or will provide
 assistance to any competitor of Gaussian, Inc.  The licensee
 of this program is prohibited from giving any competitor of
 Gaussian, Inc. access to this program.  By using this program,
 the user acknowledges that Gaussian, Inc. is engaged in the
 business of creating and licensing software in the field of
 computational chemistry and represents and warrants to the
 licensee that it is not a competitor of Gaussian, Inc. and that
 it will not use this program in any manner prohibited above.
 ---------------------------------------------------------------
  

 Cite this work as:
 Gaussian 16, Revision B.01,
 M. J. Frisch, G. W. Trucks, H. B. Schlegel, G. E. Scuseria, 
 M. A. Robb, J. R. Cheeseman, G. Scalmani, V. Barone, 
 G. A. Petersson, H. Nakatsuji, X. Li, M. Caricato, A. V. Marenich, 
 J. Bloino, B. G. Janesko, R. Gomperts, B. Mennucci, H. P. Hratchian, 
 J. V. Ortiz, A. F. Izmaylov, J. L. Sonnenberg, D. Williams-Young, 
 F. Ding, F. Lipparini, F. Egidi, J. Goings, B. Peng, A. Petrone, 
 T. Henderson, D. Ranasinghe, V. G. Zakrzewski, J. Gao, N. Rega, 
 G. Zheng, W. Liang, M. Hada, M. Ehara, K. Toyota, R. Fukuda, 
 J. Hasegawa, M. Ishida, T. Nakajima, Y. Honda, O. Kitao, H. Nakai, 
 T. Vreven, K. Throssell, J. A. Montgomery, Jr., J. E. Peralta, 
 F. Ogliaro, M. J. Bearpark, J. J. Heyd, E. N. Brothers, K. N. Kudin, 
 V. N. Staroverov, T. A. Keith, R. Kobayashi, J. Normand, 
 K. Raghavachari, A. P. Rendell, J. C. Burant, S. S. Iyengar, 
 J. Tomasi, M. Cossi, J. M. Millam, M. Klene, C. Adamo, R. Cammi, 
 J. W. Ochterski, R. L. Martin, K. Morokuma, O. Farkas, 
 J. B. Foresman, and D. J. Fox, Gaussian, Inc., Wallingford CT, 2016.
 
 ******************************************
 Gaussian 16:  ES64L-G16RevB.01 20-Dec-2017
                 6-Oct-2023 
 ******************************************
 %NProcShared=16
 Will use up to   16 processors via shared memory.
 %mem=12GB
 %Chk=checkpoint.chk
 -------------------------
 #p B3LYP/6-311+g(d) force
 -------------------------
 1/10=7,30=1,38=1/1,3;
 2/12=2,17=6,18=5,40=1/2;
 3/5=4,6=6,7=11,11=2,25=1,30=1,71=1,74=-5/1,2,3;
 4//1;
 5/5=2,38=5/2;
 6/7=2,8=2,9=2,10=2,28=1/1;
 7/29=1/1,2,3,16;
 1/10=7,30=1/3;
 99//99;
 Leave Link    1 at Fri Oct  6 22:02:13 2023, MaxMem=  1610612736 cpu:               0.6 elap:               0.5
 (Enter /home/sekinelabo/g16/l101.exe)


 Symbolic Z-matrix:
 Charge =  0 Multiplicity = 1
 Na                    0.        0.        0. 
 Na                   -0.52385   0.       -2.63951 
 Na                    0.        0.        4.15906 
 Na                   -3.14478  -0.43146   2.78649 
 
 ITRead=  0  0  0  0
 MicOpt= -1 -1 -1 -1
 NAtoms=      4 NQM=        4 NQMF=       0 NMMI=      0 NMMIF=      0
                NMic=       0 NMicF=      0.
                    Isotopes and Nuclear Properties:
 (Nuclear quadrupole moments (NQMom) in fm**2, nuclear magnetic moments (NMagM)
  in nuclear magnetons)

  Atom         1           2           3           4
 IAtWgt=          23          23          23          23
 AtmWgt=  22.9897697  22.9897697  22.9897697  22.9897697
 NucSpn=           3           3           3           3
 AtZEff=  -0.0000000  -0.0000000  -0.0000000  -0.0000000
 NQMom=   10.4000000  10.4000000  10.4000000  10.4000000
 NMagM=    2.2175200   2.2175200   2.2175200   2.2175200
 AtZNuc=  11.0000000  11.0000000  11.0000000  11.0000000
 Leave Link  101 at Fri Oct  6 22:02:14 2023, MaxMem=  1610612736 cpu:               2.2 elap:               1.4
 (Enter /home/sekinelabo/g16/l103.exe)

 GradGradGradGradGradGradGradGradGradGradGradGradGradGradGradGradGradGrad
 Berny optimization.
 Initialization pass.
 Trust Radius=3.00D-01 FncErr=1.00D-07 GrdErr=1.00D-07 EigMax=2.50D+02 EigMin=1.00D-04
 Number of steps in this run=      2 maximum allowed number of steps=      2.
 GradGradGradGradGradGradGradGradGradGradGradGradGradGradGradGradGradGrad

 Leave Link  103 at Fri Oct  6 22:02:15 2023, MaxMem=  1610612736 cpu:               0.6 elap:               0.5
 (Enter /home/sekinelabo/g16/l202.exe)
                          Input orientation:                          
 ---------------------------------------------------------------------
 Center     Atomic      Atomic             Coordinates (Angstroms)
 Number     Number       Type             X           Y           Z
 ---------------------------------------------------------------------
      1         11           0        0.000000    0.000000    0.000000
      2         11           0       -0.523854    0.000000   -2.639507
      3         11           0        0.000000    0.000000    4.159058
      4         11           0       -3.144781   -0.431465    2.786485
 ---------------------------------------------------------------------
                    Distance matrix (angstroms):
                    1          2          3          4
     1  Na   0.000000
     2  Na   2.690989   0.000000
     3  Na   4.159058   6.818717   0.000000
     4  Na   4.223779   6.041259   3.458289   0.000000
 Stoichiometry    Na4
 Framework group  C1[X(Na4)]
 Deg. of freedom     6
 Full point group                 C1      NOp   1
 Largest Abelian subgroup         C1      NOp   1
 Largest concise Abelian subgroup C1      NOp   1
                         Standard orientation:                         
 ---------------------------------------------------------------------
 Center     Atomic      Atomic             Coordinates (Angstroms)
 Number     Number       Type             X           Y           Z
 ---------------------------------------------------------------------
      1         11           0       -1.213171   -0.734263    0.027592
      2         11           0       -3.732338    0.210822   -0.017454
      3         11           0        2.889354   -1.416470   -0.012992
      4         11           0        2.056155    1.939911    0.002854
 ---------------------------------------------------------------------
 Rotational constants (GHZ):           3.4594177           0.7856741           0.6403093
 Leave Link  202 at Fri Oct  6 22:02:15 2023, MaxMem=  1610612736 cpu:               1.2 elap:               0.9
 (Enter /home/sekinelabo/g16/l301.exe)
 Standard basis: 6-311+G(d) (5D, 7F)
 Ernie: Thresh=  0.10000D-02 Tol=  0.10000D-05 Strict=F.
 There are   124 symmetry adapted cartesian basis functions of A   symmetry.
 There are   120 symmetry adapted basis functions of A   symmetry.
   120 basis functions,   200 primitive gaussians,   124 cartesian basis functions
    22 alpha electrons       22 beta electrons
       nuclear repulsion energy        92.8536406189 Hartrees.
 IExCor=  402 DFT=T Ex+Corr=B3LYP ExCW=0 ScaHFX=  0.200000
 ScaDFX=  0.800000  0.720000  1.000000  0.810000 ScalE2=  1.000000  1.000000
 IRadAn=      5 IRanWt=     -1 IRanGd=            0 ICorTp=0 IEmpDi=  4
 NAtoms=    4 NActive=    4 NUniq=    4 SFac= 1.00D+00 NAtFMM=   60 NAOKFM=F Big=F
 Integral buffers will be    131072 words long.
 Raffenetti 2 integral format.
 Two-electron integral symmetry is turned on.
 Leave Link  301 at Fri Oct  6 22:02:16 2023, MaxMem=  1610612736 cpu:               0.6 elap:               0.5
 (Enter /home/sekinelabo/g16/l302.exe)
 NPDir=0 NMtPBC=     1 NCelOv=     1 NCel=       1 NClECP=     1 NCelD=      1
         NCelK=      1 NCelE2=     1 NClLst=     1 CellRange=     0.0.
 One-electron integrals computed using PRISM.
 One-electron integral symmetry used in STVInt
 NBasis=   120 RedAO= T EigKep=  4.27D-06  NBF=   120
 NBsUse=   120 1.00D-06 EigRej= -1.00D+00 NBFU=   120
 Precomputing XC quadrature grid using
 IXCGrd= 4 IRadAn=           5 IRanWt=          -1 IRanGd=           0 AccXCQ= 0.00D+00.
 Generated NRdTot=       0 NPtTot=           0 NUsed=           0 NTot=          32
 NSgBfM=   117   117   117   117   117 MxSgAt=     4 MxSgA2=     4.
 Leave Link  302 at Fri Oct  6 22:02:29 2023, MaxMem=  1610612736 cpu:              20.5 elap:              12.8
 (Enter /home/sekinelabo/g16/l303.exe)
 DipDrv:  MaxL=1.
 Leave Link  303 at Fri Oct  6 22:02:31 2023, MaxMem=  1610612736 cpu:               2.7 elap:               1.8
 (Enter /home/sekinelabo/g16/l401.exe)
 ExpMin= 7.60D-03 ExpMax= 3.62D+04 ExpMxC= 1.21D+03 IAcc=3 IRadAn=         5 AccDes= 0.00D+00
 Harris functional with IExCor=  402 and IRadAn=       5 diagonalized for initial guess.
 HarFok:  IExCor=  402 AccDes= 0.00D+00 IRadAn=         5 IDoV= 1 UseB2=F ITyADJ=14
 ICtDFT=  3500011 ScaDFX=  1.000000  1.000000  1.000000  1.000000
 FoFCou: FMM=F IPFlag=           0 FMFlag=      100000 FMFlg1=           0
         NFxFlg=           0 DoJE=T BraDBF=F KetDBF=T FulRan=T
         wScrn=  0.000000 ICntrl=       500 IOpCl=  0 I1Cent=   200000004 NGrid=           0
         NMat0=    1 NMatS0=      1 NMatT0=    0 NMatD0=    1 NMtDS0=    0 NMtDT0=    0
 Petite list used in FoFCou.
 Harris En= -649.072739606991    
 JPrj=0 DoOrth=F DoCkMO=F.
 Leave Link  401 at Fri Oct  6 22:02:40 2023, MaxMem=  1610612736 cpu:              14.5 elap:               9.5
 (Enter /home/sekinelabo/g16/l502.exe)
 Keep R1 ints in memory in canonical form, NReq=41581754.
 FoFCou: FMM=F IPFlag=           0 FMFlag=           0 FMFlg1=           0
         NFxFlg=           0 DoJE=F BraDBF=F KetDBF=F FulRan=T
         wScrn=  0.000000 ICntrl=       600 IOpCl=  0 I1Cent=           0 NGrid=           0
         NMat0=    1 NMatS0=   7260 NMatT0=    0 NMatD0=    1 NMtDS0=    0 NMtDT0=    0
 Symmetry not used in FoFCou.
 Two-electron integral symmetry not used.
 Closed shell SCF:
 Using DIIS extrapolation, IDIIS=  1040.
 NGot=  1610612736 LenX=  1584221388 LenY=  1584205571
 Requested convergence on RMS density matrix=1.00D-08 within 128 cycles.
 Requested convergence on MAX density matrix=1.00D-06.
 Requested convergence on             energy=1.00D-06.
 No special actions if energy rises.

 Cycle   1  Pass 1  IDiag  1:
 E= -649.185065174786    
 DIIS: error= 1.51D-02 at cycle   1 NSaved=   1.
 NSaved= 1 IEnMin= 1 EnMin= -649.185065174786     IErMin= 1 ErrMin= 1.51D-02
 ErrMax= 1.51D-02  0.00D+00 EMaxC= 1.00D-01 BMatC= 2.61D-02 BMatP= 2.61D-02
 IDIUse=3 WtCom= 8.49D-01 WtEn= 1.51D-01
 Coeff-Com:  0.100D+01
 Coeff-En:   0.100D+01
 Coeff:      0.100D+01
 Gap=     0.044 Goal=   None    Shift=    0.000
 GapD=    0.044 DampG=0.250 DampE=0.500 DampFc=0.2500 IDamp=-1.
 Damping current iteration by 2.50D-01
 RMSDP=2.01D-02 MaxDP=1.00D+00              OVMax= 1.19D-01

 Cycle   2  Pass 1  IDiag  1:
 E= -649.189696906294     Delta-E=       -0.004631731508 Rises=F Damp=T
 DIIS: error= 1.06D-02 at cycle   2 NSaved=   2.
 NSaved= 2 IEnMin= 2 EnMin= -649.189696906294     IErMin= 2 ErrMin= 1.06D-02
 ErrMax= 1.06D-02  0.00D+00 EMaxC= 1.00D-01 BMatC= 1.02D-02 BMatP= 2.61D-02
 IDIUse=3 WtCom= 8.94D-01 WtEn= 1.06D-01
 Coeff-Com: -0.134D+01 0.234D+01
 Coeff-En:   0.000D+00 0.100D+01
 Coeff:     -0.119D+01 0.219D+01
 Gap=     0.048 Goal=   None    Shift=    0.000
 RMSDP=1.32D-02 MaxDP=6.40D-01 DE=-4.63D-03 OVMax= 4.03D-02

 Cycle   3  Pass 1  IDiag  1:
 E= -649.199382188913     Delta-E=       -0.009685282619 Rises=F Damp=F
 DIIS: error= 3.60D-04 at cycle   3 NSaved=   3.
 NSaved= 3 IEnMin= 3 EnMin= -649.199382188913     IErMin= 3 ErrMin= 3.60D-04
 ErrMax= 3.60D-04  0.00D+00 EMaxC= 1.00D-01 BMatC= 1.57D-05 BMatP= 1.02D-02
 IDIUse=3 WtCom= 9.96D-01 WtEn= 3.60D-03
 Coeff-Com:  0.396D-01-0.462D-01 0.101D+01
 Coeff-En:   0.000D+00 0.000D+00 0.100D+01
 Coeff:      0.394D-01-0.460D-01 0.101D+01
 Gap=     0.049 Goal=   None    Shift=    0.000
 RMSDP=6.55D-04 MaxDP=3.33D-02 DE=-9.69D-03 OVMax= 9.35D-03

 Cycle   4  Pass 1  IDiag  1:
 E= -649.199404707693     Delta-E=       -0.000022518779 Rises=F Damp=F
 DIIS: error= 1.33D-04 at cycle   4 NSaved=   4.
 NSaved= 4 IEnMin= 4 EnMin= -649.199404707693     IErMin= 4 ErrMin= 1.33D-04
 ErrMax= 1.33D-04  0.00D+00 EMaxC= 1.00D-01 BMatC= 4.12D-06 BMatP= 1.57D-05
 IDIUse=3 WtCom= 9.99D-01 WtEn= 1.33D-03
 Coeff-Com:  0.207D-01-0.274D-01 0.363D+00 0.643D+00
 Coeff-En:   0.000D+00 0.000D+00 0.000D+00 0.100D+01
 Coeff:      0.207D-01-0.274D-01 0.363D+00 0.644D+00
 Gap=     0.049 Goal=   None    Shift=    0.000
 RMSDP=3.23D-04 MaxDP=1.37D-02 DE=-2.25D-05 OVMax= 3.51D-03

 Cycle   5  Pass 1  IDiag  1:
 E= -649.199410113907     Delta-E=       -0.000005406214 Rises=F Damp=F
 DIIS: error= 5.18D-05 at cycle   5 NSaved=   5.
 NSaved= 5 IEnMin= 5 EnMin= -649.199410113907     IErMin= 5 ErrMin= 5.18D-05
 ErrMax= 5.18D-05  0.00D+00 EMaxC= 1.00D-01 BMatC= 3.33D-07 BMatP= 4.12D-06
 IDIUse=1 WtCom= 1.00D+00 WtEn= 0.00D+00
 Coeff-Com:  0.637D-02-0.877D-02 0.112D+00 0.271D+00 0.619D+00
 Coeff:      0.637D-02-0.877D-02 0.112D+00 0.271D+00 0.619D+00
 Gap=     0.049 Goal=   None    Shift=    0.000
 RMSDP=4.02D-05 MaxDP=1.47D-03 DE=-5.41D-06 OVMax= 1.55D-03

 Cycle   6  Pass 1  IDiag  1:
 E= -649.199410969597     Delta-E=       -0.000000855690 Rises=F Damp=F
 DIIS: error= 2.05D-05 at cycle   6 NSaved=   6.
 NSaved= 6 IEnMin= 6 EnMin= -649.199410969597     IErMin= 6 ErrMin= 2.05D-05
 ErrMax= 2.05D-05  0.00D+00 EMaxC= 1.00D-01 BMatC= 4.15D-08 BMatP= 3.33D-07
 IDIUse=1 WtCom= 1.00D+00 WtEn= 0.00D+00
 Coeff-Com:  0.476D-03-0.807D-03 0.192D-01 0.621D-01 0.287D+00 0.632D+00
 Coeff:      0.476D-03-0.807D-03 0.192D-01 0.621D-01 0.287D+00 0.632D+00
 Gap=     0.049 Goal=   None    Shift=    0.000
 RMSDP=3.23D-05 MaxDP=1.42D-03 DE=-8.56D-07 OVMax= 4.97D-04

 Cycle   7  Pass 1  IDiag  1:
 E= -649.199411110570     Delta-E=       -0.000000140974 Rises=F Damp=F
 DIIS: error= 2.92D-06 at cycle   7 NSaved=   7.
 NSaved= 7 IEnMin= 7 EnMin= -649.199411110570     IErMin= 7 ErrMin= 2.92D-06
 ErrMax= 2.92D-06  0.00D+00 EMaxC= 1.00D-01 BMatC= 1.73D-09 BMatP= 4.15D-08
 IDIUse=1 WtCom= 1.00D+00 WtEn= 0.00D+00
 Coeff-Com: -0.689D-03 0.893D-03-0.626D-02-0.156D-01-0.139D-01 0.153D+00
 Coeff-Com:  0.883D+00
 Coeff:     -0.689D-03 0.893D-03-0.626D-02-0.156D-01-0.139D-01 0.153D+00
 Coeff:      0.883D+00
 Gap=     0.049 Goal=   None    Shift=    0.000
 RMSDP=8.41D-06 MaxDP=2.62D-04 DE=-1.41D-07 OVMax= 1.27D-04

 Cycle   8  Pass 1  IDiag  1:
 E= -649.199411117469     Delta-E=       -0.000000006898 Rises=F Damp=F
 DIIS: error= 4.90D-07 at cycle   8 NSaved=   8.
 NSaved= 8 IEnMin= 8 EnMin= -649.199411117469     IErMin= 8 ErrMin= 4.90D-07
 ErrMax= 4.90D-07  0.00D+00 EMaxC= 1.00D-01 BMatC= 7.81D-11 BMatP= 1.73D-09
 IDIUse=1 WtCom= 1.00D+00 WtEn= 0.00D+00
 Coeff-Com: -0.228D-04 0.327D-04-0.135D-02-0.584D-02-0.178D-01-0.100D-01
 Coeff-Com:  0.160D+00 0.875D+00
 Coeff:     -0.228D-04 0.327D-04-0.135D-02-0.584D-02-0.178D-01-0.100D-01
 Coeff:      0.160D+00 0.875D+00
 Gap=     0.049 Goal=   None    Shift=    0.000
 RMSDP=2.62D-06 MaxDP=9.57D-05 DE=-6.90D-09 OVMax= 2.29D-05

 Cycle   9  Pass 1  IDiag  1:
 E= -649.199411117668     Delta-E=       -0.000000000200 Rises=F Damp=F
 DIIS: error= 2.23D-07 at cycle   9 NSaved=   9.
 NSaved= 9 IEnMin= 9 EnMin= -649.199411117668     IErMin= 9 ErrMin= 2.23D-07
 ErrMax= 2.23D-07  0.00D+00 EMaxC= 1.00D-01 BMatC= 9.68D-12 BMatP= 7.81D-11
 IDIUse=1 WtCom= 1.00D+00 WtEn= 0.00D+00
 Coeff-Com:  0.578D-04-0.744D-04-0.559D-04-0.980D-03-0.477D-02-0.172D-01
 Coeff-Com: -0.199D-01 0.327D+00 0.716D+00
 Coeff:      0.578D-04-0.744D-04-0.559D-04-0.980D-03-0.477D-02-0.172D-01
 Coeff:     -0.199D-01 0.327D+00 0.716D+00
 Gap=     0.049 Goal=   None    Shift=    0.000
 RMSDP=6.82D-07 MaxDP=2.53D-05 DE=-2.00D-10 OVMax= 6.71D-06

 Cycle  10  Pass 1  IDiag  1:
 E= -649.199411117694     Delta-E=       -0.000000000025 Rises=F Damp=F
 DIIS: error= 3.81D-08 at cycle  10 NSaved=  10.
 NSaved=10 IEnMin=10 EnMin= -649.199411117694     IErMin=10 ErrMin= 3.81D-08
 ErrMax= 3.81D-08  0.00D+00 EMaxC= 1.00D-01 BMatC= 1.24D-13 BMatP= 9.68D-12
 IDIUse=1 WtCom= 1.00D+00 WtEn= 0.00D+00
 Coeff-Com: -0.616D-05 0.806D-05 0.458D-04 0.270D-03 0.878D-03 0.101D-02
 Coeff-Com: -0.352D-02-0.505D-01-0.425D-02 0.106D+01
 Coeff:     -0.616D-05 0.806D-05 0.458D-04 0.270D-03 0.878D-03 0.101D-02
 Coeff:     -0.352D-02-0.505D-01-0.425D-02 0.106D+01
 Gap=     0.049 Goal=   None    Shift=    0.000
 RMSDP=9.65D-08 MaxDP=3.06D-06 DE=-2.52D-11 OVMax= 3.16D-06

 Cycle  11  Pass 1  IDiag  1:
 E= -649.199411117692     Delta-E=        0.000000000002 Rises=F Damp=F
 DIIS: error= 1.65D-08 at cycle  11 NSaved=  11.
 NSaved=11 IEnMin=10 EnMin= -649.199411117694     IErMin=11 ErrMin= 1.65D-08
 ErrMax= 1.65D-08  0.00D+00 EMaxC= 1.00D-01 BMatC= 2.23D-14 BMatP= 1.24D-13
 IDIUse=1 WtCom= 1.00D+00 WtEn= 0.00D+00
 Coeff-Com: -0.540D-05 0.701D-05 0.183D-04 0.142D-03 0.611D-03 0.122D-02
 Coeff-Com: -0.517D-03-0.337D-01-0.470D-01 0.357D+00 0.722D+00
 Coeff:     -0.540D-05 0.701D-05 0.183D-04 0.142D-03 0.611D-03 0.122D-02
 Coeff:     -0.517D-03-0.337D-01-0.470D-01 0.357D+00 0.722D+00
 Gap=     0.049 Goal=   None    Shift=    0.000
 RMSDP=2.29D-08 MaxDP=6.63D-07 DE= 1.82D-12 OVMax= 6.02D-07

 Cycle  12  Pass 1  IDiag  1:
 E= -649.199411117693     Delta-E=       -0.000000000002 Rises=F Damp=F
 DIIS: error= 3.60D-09 at cycle  12 NSaved=  12.
 NSaved=12 IEnMin=10 EnMin= -649.199411117694     IErMin=12 ErrMin= 3.60D-09
 ErrMax= 3.60D-09  0.00D+00 EMaxC= 1.00D-01 BMatC= 1.21D-15 BMatP= 2.23D-14
 IDIUse=1 WtCom= 1.00D+00 WtEn= 0.00D+00
 Coeff-Com:  0.505D-06-0.684D-06-0.313D-05-0.175D-04-0.456D-04-0.495D-04
 Coeff-Com:  0.364D-03 0.196D-02-0.371D-02-0.100D+00 0.106D+00 0.995D+00
 Coeff:      0.505D-06-0.684D-06-0.313D-05-0.175D-04-0.456D-04-0.495D-04
 Coeff:      0.364D-03 0.196D-02-0.371D-02-0.100D+00 0.106D+00 0.995D+00
 Gap=     0.049 Goal=   None    Shift=    0.000
 RMSDP=9.37D-09 MaxDP=2.83D-07 DE=-1.59D-12 OVMax= 2.88D-07

 SCF Done:  E(RB3LYP) =  -649.199411118     A.U. after   12 cycles
            NFock= 12  Conv=0.94D-08     -V/T= 2.0028
 KE= 6.473690126679D+02 PE=-1.745188453577D+03 EE= 3.557663891724D+02
 Leave Link  502 at Fri Oct  6 22:04:03 2023, MaxMem=  1610612736 cpu:             132.1 elap:              83.3
 (Enter /home/sekinelabo/g16/l601.exe)
 Copying SCF densities to generalized density rwf, IOpCl= 0 IROHF=0.

 **********************************************************************

            Population analysis using the SCF Density.

 **********************************************************************

 Orbital symmetries:
       Occupied  (A) (A) (A) (A) (A) (A) (A) (A) (A) (A) (A) (A)
                 (A) (A) (A) (A) (A) (A) (A) (A) (A) (A)
       Virtual   (A) (A) (A) (A) (A) (A) (A) (A) (A) (A) (A) (A)
                 (A) (A) (A) (A) (A) (A) (A) (A) (A) (A) (A) (A)
                 (A) (A) (A) (A) (A) (A) (A) (A) (A) (A) (A) (A)
                 (A) (A) (A) (A) (A) (A) (A) (A) (A) (A) (A) (A)
                 (A) (A) (A) (A) (A) (A) (A) (A) (A) (A) (A) (A)
                 (A) (A) (A) (A) (A) (A) (A) (A) (A) (A) (A) (A)
                 (A) (A) (A) (A) (A) (A) (A) (A) (A) (A) (A) (A)
                 (A) (A) (A) (A) (A) (A) (A) (A) (A) (A) (A) (A)
                 (A) (A)
 The electronic state is 1-A.
 Alpha  occ. eigenvalues --  -38.45846 -38.45174 -38.43187 -38.42758  -2.21582
 Alpha  occ. eigenvalues --   -2.20924  -2.19062  -2.18617  -1.15258  -1.15244
 Alpha  occ. eigenvalues --   -1.15204  -1.14597  -1.14594  -1.14545  -1.12967
 Alpha  occ. eigenvalues --   -1.12703  -1.12693  -1.12230  -1.12229  -1.12205
 Alpha  occ. eigenvalues --   -0.14650  -0.11721
 Alpha virt. eigenvalues --   -0.06848  -0.04591  -0.03192  -0.02241  -0.01708
 Alpha virt. eigenvalues --   -0.01211  -0.00979   0.00154   0.00170   0.00431
 Alpha virt. eigenvalues --    0.00923   0.00955   0.01027   0.01310   0.01532
 Alpha virt. eigenvalues --    0.01645   0.01734   0.01771   0.01946   0.02314
 Alpha virt. eigenvalues --    0.02455   0.02535   0.02687   0.03305   0.03721
 Alpha virt. eigenvalues --    0.03750   0.03837   0.04073   0.04129   0.06016
 Alpha virt. eigenvalues --    0.06500   0.07329   0.07531   0.07978   0.08023
 Alpha virt. eigenvalues --    0.08657   0.08952   0.09052   0.09904   0.10820
 Alpha virt. eigenvalues --    0.11340   0.11674   0.12436   0.13604   0.15052
 Alpha virt. eigenvalues --    0.18346   0.28369   0.29124   0.30353   0.30701
 Alpha virt. eigenvalues --    0.32189   0.32282   0.32914   0.33784   0.35356
 Alpha virt. eigenvalues --    0.36196   0.37548   0.39984   0.40428   0.41209
 Alpha virt. eigenvalues --    0.42467   0.42542   0.42979   0.43583   0.43638
 Alpha virt. eigenvalues --    0.44200   0.44536   0.44942   0.45857   0.45885
 Alpha virt. eigenvalues --    0.47322   0.48301   0.49258   0.53247   0.54868
 Alpha virt. eigenvalues --    0.56171   0.58420   0.85537   2.01418   2.09705
 Alpha virt. eigenvalues --    2.11304   2.12739   4.42084   4.43313   4.43669
 Alpha virt. eigenvalues --    4.43955   4.44457   4.44831   4.45349   4.47828
 Alpha virt. eigenvalues --    4.48763   4.50095   4.51005   4.79575  96.20494
 Alpha virt. eigenvalues --   96.30326  96.32215  96.36188
          Condensed to atoms (all electrons):
               1          2          3          4
     1  Na  12.022059  -0.342174   0.077458  -0.170348
     2  Na  -0.342174  10.870596  -0.008608   0.205386
     3  Na   0.077458  -0.008608  10.485203   0.202437
     4  Na  -0.170348   0.205386   0.202437  10.693838
 Mulliken charges:
               1
     1  Na  -0.586996
     2  Na   0.274800
     3  Na   0.243509
     4  Na   0.068687
 Sum of Mulliken charges =  -0.00000
 Mulliken charges with hydrogens summed into heavy atoms:
               1
     1  Na  -0.586996
     2  Na   0.274800
     3  Na   0.243509
     4  Na   0.068687
 Electronic spatial extent (au):  <R**2>=           1433.4116
 Charge=             -0.0000 electrons
 Dipole moment (field-independent basis, Debye):
    X=              2.2861    Y=              0.6325    Z=             -0.0118  Tot=              2.3720
 Quadrupole moment (field-independent basis, Debye-Ang):
   XX=            -40.6332   YY=            -29.2522   ZZ=            -44.1231
   XY=             -4.1984   XZ=              0.0805   YZ=              0.0088
 Traceless Quadrupole moment (field-independent basis, Debye-Ang):
   XX=             -2.6303   YY=              8.7506   ZZ=             -6.1203
   XY=             -4.1984   XZ=              0.0805   YZ=              0.0088
 Octapole moment (field-independent basis, Debye-Ang**2):
  XXX=            -12.3478  YYY=             15.0831  ZZZ=             -0.0309  XYY=             36.1878
  XXY=             -1.5006  XXZ=             -0.7458  XZZ=              6.0101  YZZ=              1.0909
  YYZ=             -0.0231  XYZ=              0.2364
 Hexadecapole moment (field-independent basis, Debye-Ang**3):
 XXXX=          -1810.0023 YYYY=           -404.1419 ZZZZ=           -181.2951 XXXY=           -116.0610
 XXXZ=              2.4846 YYYX=             -2.4739 YYYZ=              0.2123 ZZZX=              0.3835
 ZZZY=              0.0551 XXYY=           -347.4732 XXZZ=           -374.0439 YYZZ=           -106.1342
 XXYZ=              0.3684 YYXZ=             -0.0560 ZZXY=             -6.6133
 N-N= 9.285364061892D+01 E-N=-1.745188452988D+03  KE= 6.473690126679D+02
 No NMR shielding tensors so no spin-rotation constants.
 Leave Link  601 at Fri Oct  6 22:04:09 2023, MaxMem=  1610612736 cpu:               8.5 elap:               5.4
 (Enter /home/sekinelabo/g16/l701.exe)
 ... and contract with generalized density number  0.
 Compute integral first derivatives.
 Leave Link  701 at Fri Oct  6 22:04:13 2023, MaxMem=  1610612736 cpu:               7.2 elap:               4.6
 (Enter /home/sekinelabo/g16/l702.exe)
 L702 exits ... SP integral derivatives will be done elsewhere.
 Leave Link  702 at Fri Oct  6 22:04:14 2023, MaxMem=  1610612736 cpu:               0.7 elap:               0.4
 (Enter /home/sekinelabo/g16/l703.exe)
 Integral derivatives from FoFJK, PRISM(SPDF).
 Compute integral first derivatives, UseDBF=F ICtDFT=           0.
 Calling FoFJK, ICntrl=      2127 FMM=F ISym2X=0 I1Cent= 0 IOpClX= 0 NMat=1 NMatS=1 NMatT=0.
 FoFJK:  IHMeth= 1 ICntrl=    2127 DoSepK=F KAlg= 0 I1Cent=           0 FoldK=F
 IRaf=         0 NMat=       1 IRICut=       1 DoRegI=T DoRafI=F ISym2E= 0 IDoP0=0 IntGTp=1.
 FoFCou: FMM=F IPFlag=           0 FMFlag=      100000 FMFlg1=         800
         NFxFlg=           0 DoJE=F BraDBF=F KetDBF=F FulRan=T
         wScrn=  0.000000 ICntrl=      2127 IOpCl=  0 I1Cent=           0 NGrid=           0
         NMat0=    1 NMatS0=      1 NMatT0=    0 NMatD0=    1 NMtDS0=    0 NMtDT0=    0
 Symmetry not used in FoFCou.
 Leave Link  703 at Fri Oct  6 22:04:22 2023, MaxMem=  1610612736 cpu:              13.4 elap:               8.2
 (Enter /home/sekinelabo/g16/l716.exe)
 Dipole        = 8.99410187D-01 2.48852292D-01-4.64172917D-03
 ***** Axes restored to original set *****
 -------------------------------------------------------------------
 Center     Atomic                   Forces (Hartrees/Bohr)
 Number     Number              X              Y              Z
 -------------------------------------------------------------------
      1       11           0.000927828   -0.000152804    0.012033688
      2       11          -0.001964046    0.000025178   -0.011579824
      3       11          -0.005033247   -0.000700942   -0.002013458
      4       11           0.006069465    0.000828567    0.001559594
 -------------------------------------------------------------------
 Cartesian Forces:  Max     0.012033688 RMS     0.005427403
 Z-matrix is all fixed cartesians, so copy forces.
 Force constants in Cartesian coordinates: 
                1             2             3             4             5 
      1  0.206588D-01
      2 -0.133906D+00  0.981621D+00
      3  0.107352D-01  0.966771D-02  0.608310D-01
      4 -0.239232D-02  0.000000D+00 -0.120540D-01  0.206588D-01
      5  0.000000D+00  0.000000D+00  0.000000D+00 -0.133906D+00  0.981621D+00
      6 -0.120540D-01  0.000000D+00 -0.607358D-01  0.107352D-01  0.966771D-02
      7  0.000000D+00  0.000000D+00  0.000000D+00  0.000000D+00  0.000000D+00
      8  0.000000D+00  0.000000D+00  0.000000D+00  0.000000D+00  0.000000D+00
      9  0.000000D+00  0.000000D+00  0.000000D+00  0.000000D+00  0.000000D+00
     10  0.000000D+00  0.000000D+00  0.000000D+00  0.000000D+00  0.000000D+00
     11  0.000000D+00  0.000000D+00  0.000000D+00  0.000000D+00  0.000000D+00
     12  0.000000D+00  0.000000D+00  0.000000D+00  0.000000D+00  0.000000D+00
                6             7             8             9            10 
      6  0.608310D-01
      7  0.000000D+00  0.343509D-01
      8  0.000000D+00 -0.131701D+00  0.981940D+00
      9  0.000000D+00  0.570123D-02  0.106310D-01  0.315919D-02
     10  0.000000D+00 -0.160840D-01 -0.220673D-02 -0.702005D-02  0.343509D-01
     11  0.000000D+00 -0.220673D-02 -0.302764D-03 -0.963152D-03 -0.131701D+00
     12  0.000000D+00 -0.702005D-02 -0.963152D-03 -0.306397D-02  0.570123D-02
               11            12 
     11  0.981940D+00
     12  0.106310D-01  0.315919D-02
 Leave Link  716 at Fri Oct  6 22:04:23 2023, MaxMem=  1610612736 cpu:               0.7 elap:               0.4
 (Enter /home/sekinelabo/g16/l103.exe)

 GradGradGradGradGradGradGradGradGradGradGradGradGradGradGradGradGradGrad
 Berny optimization.
 Search for a local minimum.
 Step number   1 out of a maximum of    2
 All quantities printed in internal units (Hartrees-Bohrs-Radians)
 Second derivative matrix not updated -- first step.
 The second derivative matrix:
                          X1        Y1        Z1        X2        Y2
           X1           0.02066
           Y1          -0.13391   0.98162
           Z1           0.01074   0.00967   0.06083
           X2          -0.00239  -0.00000  -0.01205   0.02066
           Y2           0.00000  -0.00000  -0.00000  -0.13391   0.98162
           Z2          -0.01205   0.00000  -0.06074   0.01074   0.00967
           X3           0.00000   0.00000   0.00000   0.00000   0.00000
           Y3           0.00000   0.00000   0.00000   0.00000   0.00000
           Z3           0.00000   0.00000   0.00000   0.00000   0.00000
           X4           0.00000   0.00000   0.00000   0.00000   0.00000
           Y4           0.00000   0.00000   0.00000   0.00000   0.00000
           Z4           0.00000   0.00000   0.00000   0.00000   0.00000
                          Z2        X3        Y3        Z3        X4
           Z2           0.06083
           X3           0.00000   0.03435
           Y3           0.00000  -0.13170   0.98194
           Z3           0.00000   0.00570   0.01063   0.00316
           X4           0.00000  -0.01608  -0.00221  -0.00702   0.03435
           Y4           0.00000  -0.00221  -0.00030  -0.00096  -0.13170
           Z4           0.00000  -0.00702  -0.00096  -0.00306   0.00570
                          Y4        Z4
           Y4           0.98194
           Z4           0.01063   0.00316
 ITU=  0
     Eigenvalues ---    0.00000   0.00001   0.00016   0.03892   0.12627
     Eigenvalues ---    1.00002
 Eigenvalue     1 is   2.22D-16 Eigenvector:
                          Z4        X4        Z2        Z1        X2
   1                    0.71491  -0.39484  -0.33325  -0.31577   0.27212
                          X1        Z3        X3        Y4        Y2
   1                    0.18408  -0.06589  -0.06136  -0.06090   0.04040
 Eigenvalue     2 is   7.42D-06 Eigenvector:
                          Z3        Z2        Z1        X4        X3
   1                    0.79898  -0.36470  -0.36109   0.25940  -0.11339
                          X1        Z4        X2        Y4        Y3
   1                   -0.08161  -0.07318  -0.06440   0.03678  -0.02158
 Quadratic step=1.532D+01 exceeds max=3.000D-01 adjusted using Lamda=-8.833D-03.
 Angle between NR and scaled steps=  45.86 degrees.
 Angle between quadratic step and forces=  46.05 degrees.
 Linear search not attempted -- first point.
 B after Tr=     0.000000   -0.000000    0.000000
         Rot=    1.000000   -0.000000    0.000000    0.000000 Ang=   0.00 deg.
 Variable       Old X    -DE/DX   Delta X   Delta X   Delta X     New X
                                 (Linear)    (Quad)   (Total)
    X1        0.00000   0.00093   0.00000  -0.13766  -0.13766  -0.13766
    Y1        0.00000  -0.00015   0.00000  -0.01960  -0.01960  -0.01960
    Z1        0.00000   0.01203   0.00000   0.13060   0.13060   0.13060
    X2       -0.98994  -0.00196   0.00000   0.02160   0.02160  -0.96834
    Y2        0.00000   0.00003   0.00000   0.00439   0.00439   0.00439
    Z2       -4.98795  -0.01158   0.00000  -0.08003  -0.08003  -5.06798
    X3       -0.00000  -0.00503   0.00000  -0.07931  -0.07931  -0.07931
    Y3       -0.00000  -0.00070   0.00000  -0.01087  -0.01087  -0.01087
    Z3        7.85948  -0.00201   0.00000  -0.01381  -0.01381   7.84567
    X4       -5.94278   0.00607   0.00000   0.19537   0.19537  -5.74741
    Y4       -0.81535   0.00083   0.00000   0.02607   0.02607  -0.78928
    Z4        5.26569   0.00156   0.00000  -0.03675  -0.03675   5.22894
         Item               Value     Threshold  Converged?
 Maximum Force            0.012034     0.000450     NO 
 RMS     Force            0.005427     0.000300     NO 
 Maximum Displacement     0.195368     0.001800     NO 
 RMS     Displacement     0.086641     0.001200     NO 
 Predicted change in Energy=-2.356837D-03
 GradGradGradGradGradGradGradGradGradGradGradGradGradGradGradGradGradGrad

 Leave Link  103 at Fri Oct  6 22:04:25 2023, MaxMem=  1610612736 cpu:               3.6 elap:               2.2
 (Enter /home/sekinelabo/g16/l9999.exe)
 1\1\GINC-SEKINELABO-XA7R-R37\Force\RB3LYP\6-311+G(d)\Na4\SEKINELABO\06
 -Oct-2023\0\\#p B3LYP/6-311+g(d) force\\\0,1\Na,0.,0.,0.\Na,-0.5238541
 946,0.,-2.6395070802\Na,0.,0.,4.1590576712\Na,-3.1447811504,-0.4314646
 183,2.7864852763\\Version=ES64L-G16RevB.01\State=1-A\HF=-649.1994111\R
 MSD=9.374e-09\RMSF=5.427e-03\Dipole=-0.3889225,-0.0567052,0.846411\Qua
 drupole=5.0956098,-4.3763829,-0.7192269,1.289693,4.2957933,0.4897879\P
 G=C01 [X(Na4)]\\@


 The earth never tires,
 The earth is rude, silent, incomprehensible at first,
 Nature is rude and incomprehensible at first,
 Be not discouraged, keep on,
 There are divine things well envelop'd,
 I swear to you there are divine things more beautiful than words can tell.
                                 -- Walt Whitman
 Job cpu time:       0 days  0 hours  3 minutes 30.2 seconds.
 Elapsed time:       0 days  0 hours  2 minutes 12.8 seconds.
 File lengths (MBytes):  RWF=     10 Int=      0 D2E=      0 Chk=      2 Scr=      1
 Normal termination of Gaussian 16 at Fri Oct  6 22:04:25 2023.
 Initial command:
 /home/sekinelabo/g16/l1.exe "/home/sekinelabo/g16temp/Gau-708793.inp" -scrdir="/home/sekinelabo/g16temp/"
 Entering Link 1 = /home/sekinelabo/g16/l1.exe PID=    713242.
  
 Copyright (c) 1988-2017, Gaussian, Inc.  All Rights Reserved.
  
 This is part of the Gaussian(R) 16 program.  It is based on
 the Gaussian(R) 09 system (copyright 2009, Gaussian, Inc.),
 the Gaussian(R) 03 system (copyright 2003, Gaussian, Inc.),
 the Gaussian(R) 98 system (copyright 1998, Gaussian, Inc.),
 the Gaussian(R) 94 system (copyright 1995, Gaussian, Inc.),
 the Gaussian 92(TM) system (copyright 1992, Gaussian, Inc.),
 the Gaussian 90(TM) system (copyright 1990, Gaussian, Inc.),
 the Gaussian 88(TM) system (copyright 1988, Gaussian, Inc.),
 the Gaussian 86(TM) system (copyright 1986, Carnegie Mellon
 University), and the Gaussian 82(TM) system (copyright 1983,
 Carnegie Mellon University). Gaussian is a federally registered
 trademark of Gaussian, Inc.
  
 This software contains proprietary and confidential information,
 including trade secrets, belonging to Gaussian, Inc.
  
 This software is provided under written license and may be
 used, copied, transmitted, or stored only in accord with that
 written license.
  
 The following legend is applicable only to US Government
 contracts under FAR:
  
                    RESTRICTED RIGHTS LEGEND
  
 Use, reproduction and disclosure by the US Government is
 subject to restrictions as set forth in subparagraphs (a)
 and (c) of the Commercial Computer Software - Restricted
 Rights clause in FAR 52.227-19.
  
 Gaussian, Inc.
 340 Quinnipiac St., Bldg. 40, Wallingford CT 06492
  
  
 ---------------------------------------------------------------
 Warning -- This program may not be used in any manner that
 competes with the business of Gaussian, Inc. or will provide
 assistance to any competitor of Gaussian, Inc.  The licensee
 of this program is prohibited from giving any competitor of
 Gaussian, Inc. access to this program.  By using this program,
 the user acknowledges that Gaussian, Inc. is engaged in the
 business of creating and licensing software in the field of
 computational chemistry and represents and warrants to the
 licensee that it is not a competitor of Gaussian, Inc. and that
 it will not use this program in any manner prohibited above.
 ---------------------------------------------------------------
  

 Cite this work as:
 Gaussian 16, Revision B.01,
 M. J. Frisch, G. W. Trucks, H. B. Schlegel, G. E. Scuseria, 
 M. A. Robb, J. R. Cheeseman, G. Scalmani, V. Barone, 
 G. A. Petersson, H. Nakatsuji, X. Li, M. Caricato, A. V. Marenich, 
 J. Bloino, B. G. Janesko, R. Gomperts, B. Mennucci, H. P. Hratchian, 
 J. V. Ortiz, A. F. Izmaylov, J. L. Sonnenberg, D. Williams-Young, 
 F. Ding, F. Lipparini, F. Egidi, J. Goings, B. Peng, A. Petrone, 
 T. Henderson, D. Ranasinghe, V. G. Zakrzewski, J. Gao, N. Rega, 
 G. Zheng, W. Liang, M. Hada, M. Ehara, K. Toyota, R. Fukuda, 
 J. Hasegawa, M. Ishida, T. Nakajima, Y. Honda, O. Kitao, H. Nakai, 
 T. Vreven, K. Throssell, J. A. Montgomery, Jr., J. E. Peralta, 
 F. Ogliaro, M. J. Bearpark, J. J. Heyd, E. N. Brothers, K. N. Kudin, 
 V. N. Staroverov, T. A. Keith, R. Kobayashi, J. Normand, 
 K. Raghavachari, A. P. Rendell, J. C. Burant, S. S. Iyengar, 
 J. Tomasi, M. Cossi, J. M. Millam, M. Klene, C. Adamo, R. Cammi, 
 J. W. Ochterski, R. L. Martin, K. Morokuma, O. Farkas, 
 J. B. Foresman, and D. J. Fox, Gaussian, Inc., Wallingford CT, 2016.
 
 ******************************************
 Gaussian 16:  ES64L-G16RevB.01 20-Dec-2017
                 6-Oct-2023 
 ******************************************
 %NProcShared=16
 Will use up to   16 processors via shared memory.
 %mem=12GB
 %Chk=checkpoint.chk
 -------------------------
 #p B3LYP/6-311+g(d) force
 -------------------------
 1/10=7,30=1,38=1/1,3;
 2/12=2,17=6,18=5,40=1/2;
 3/5=4,6=6,7=11,11=2,25=1,30=1,71=1,74=-5/1,2,3;
 4//1;
 5/5=2,38=5/2;
 6/7=2,8=2,9=2,10=2,28=1/1;
 7/29=1/1,2,3,16;
 1/10=7,30=1/3;
 99//99;
 Leave Link    1 at Fri Oct  6 22:04:26 2023, MaxMem=  1610612736 cpu:               0.5 elap:               0.3
 (Enter /home/sekinelabo/g16/l101.exe)


 Symbolic Z-matrix:
 Charge =  0 Multiplicity = 1
 Na                    0.        0.        0. 
 Na                   -1.91595   0.        4.38584 
 Na                    0.        0.        2.42977 
 Na                   -0.10347  -0.18808  -2.25097 
 
 ITRead=  0  0  0  0
 MicOpt= -1 -1 -1 -1
 NAtoms=      4 NQM=        4 NQMF=       0 NMMI=      0 NMMIF=      0
                NMic=       0 NMicF=      0.
                    Isotopes and Nuclear Properties:
 (Nuclear quadrupole moments (NQMom) in fm**2, nuclear magnetic moments (NMagM)
  in nuclear magnetons)

  Atom         1           2           3           4
 IAtWgt=          23          23          23          23
 AtmWgt=  22.9897697  22.9897697  22.9897697  22.9897697
 NucSpn=           3           3           3           3
 AtZEff=  -0.0000000  -0.0000000  -0.0000000  -0.0000000
 NQMom=   10.4000000  10.4000000  10.4000000  10.4000000
 NMagM=    2.2175200   2.2175200   2.2175200   2.2175200
 AtZNuc=  11.0000000  11.0000000  11.0000000  11.0000000
 Leave Link  101 at Fri Oct  6 22:04:27 2023, MaxMem=  1610612736 cpu:               1.9 elap:               1.2
 (Enter /home/sekinelabo/g16/l103.exe)

 GradGradGradGradGradGradGradGradGradGradGradGradGradGradGradGradGradGrad
 Berny optimization.
 Initialization pass.
 Trust Radius=3.00D-01 FncErr=1.00D-07 GrdErr=1.00D-07 EigMax=2.50D+02 EigMin=1.00D-04
 Number of steps in this run=      2 maximum allowed number of steps=      2.
 GradGradGradGradGradGradGradGradGradGradGradGradGradGradGradGradGradGrad

 Leave Link  103 at Fri Oct  6 22:04:27 2023, MaxMem=  1610612736 cpu:               0.6 elap:               0.4
 (Enter /home/sekinelabo/g16/l202.exe)
                          Input orientation:                          
 ---------------------------------------------------------------------
 Center     Atomic      Atomic             Coordinates (Angstroms)
 Number     Number       Type             X           Y           Z
 ---------------------------------------------------------------------
      1         11           0        0.000000    0.000000    0.000000
      2         11           0       -1.915947    0.000000    4.385844
      3         11           0        0.000000    0.000000    2.429769
      4         11           0       -0.103471   -0.188077   -2.250972
 ---------------------------------------------------------------------
                    Distance matrix (angstroms):
                    1          2          3          4
     1  Na   0.000000
     2  Na   4.786072   0.000000
     3  Na   2.429769   2.738080   0.000000
     4  Na   2.261184   6.882425   4.685661   0.000000
 Stoichiometry    Na4
 Framework group  C1[X(Na4)]
 Deg. of freedom     6
 Full point group                 C1      NOp   1
 Largest Abelian subgroup         C1      NOp   1
 Largest concise Abelian subgroup C1      NOp   1
                         Standard orientation:                         
 ---------------------------------------------------------------------
 Center     Atomic      Atomic             Coordinates (Angstroms)
 Number     Number       Type             X           Y           Z
 ---------------------------------------------------------------------
      1         11           0       -1.227346    0.221546    0.062244
[...]
 Coeff:     -0.438D+00 0.318D+00 0.455D+00 0.749D+00
 Gap=     0.028 Goal=   None    Shift=    0.000
 RMSDP=3.38D-05 MaxDP=1.85D-03 DE=-3.54D-04 OVMax= 3.01D-03

 Cycle  11  Pass 1  IDiag  1:
 E= -649.176915283520     Delta-E=       -0.000002838849 Rises=F Damp=F
 DIIS: error= 1.14D-05 at cycle  11 NSaved=  11.
 NSaved=11 IEnMin=11 EnMin= -649.176915283520     IErMin=11 ErrMin= 1.14D-05
 ErrMax= 1.14D-05  0.00D+00 EMaxC= 1.00D-01 BMatC= 1.21D-08 BMatP= 4.27D-07
 IDIUse=1 WtCom= 1.00D+00 WtEn= 0.00D+00
 Coeff-Com:  0.860D-03-0.116D-02 0.239D-03-0.533D-03 0.142D-01 0.206D-01
 Coeff-Com:  0.373D-01-0.807D-01-0.397D-02 0.142D+00 0.871D+00
 Coeff:      0.860D-03-0.116D-02 0.239D-03-0.533D-03 0.142D-01 0.206D-01
 Coeff:      0.373D-01-0.807D-01-0.397D-02 0.142D+00 0.871D+00
 Gap=     0.028 Goal=   None    Shift=    0.000
 RMSDP=1.07D-05 MaxDP=4.59D-04 DE=-2.84D-06 OVMax= 7.99D-04

 Cycle  12  Pass 1  IDiag  1:
 E= -649.176915295161     Delta-E=       -0.000000011641 Rises=F Damp=F
 DIIS: error= 1.23D-05 at cycle  12 NSaved=  12.
 NSaved=12 IEnMin=12 EnMin= -649.176915295161     IErMin=11 ErrMin= 1.14D-05
 ErrMax= 1.23D-05  0.00D+00 EMaxC= 1.00D-01 BMatC= 7.72D-09 BMatP= 1.21D-08
 IDIUse=1 WtCom= 1.00D+00 WtEn= 0.00D+00
 Coeff-Com:  0.192D-03-0.257D-03 0.196D-04-0.159D-03 0.217D-02 0.361D-02
 Coeff-Com:  0.926D-02-0.841D-02-0.248D-01 0.149D-02 0.116D+00 0.901D+00
 Coeff:      0.192D-03-0.257D-03 0.196D-04-0.159D-03 0.217D-02 0.361D-02
 Coeff:      0.926D-02-0.841D-02-0.248D-01 0.149D-02 0.116D+00 0.901D+00
 Gap=     0.028 Goal=   None    Shift=    0.000
 RMSDP=4.00D-06 MaxDP=2.08D-04 DE=-1.16D-08 OVMax= 3.37D-04

 Cycle  13  Pass 1  IDiag  1:
 E= -649.176915358730     Delta-E=       -0.000000063569 Rises=F Damp=F
 DIIS: error= 3.09D-06 at cycle  13 NSaved=  13.
 NSaved=13 IEnMin=13 EnMin= -649.176915358730     IErMin=13 ErrMin= 3.09D-06
 ErrMax= 3.09D-06  0.00D+00 EMaxC= 1.00D-01 BMatC= 3.09D-10 BMatP= 7.72D-09
 IDIUse=1 WtCom= 1.00D+00 WtEn= 0.00D+00
 Coeff-Com:  0.167D-04-0.235D-04 0.544D-05 0.549D-04-0.115D-04-0.768D-03
 Coeff-Com: -0.219D-02 0.289D-02-0.391D-02-0.298D-02-0.242D-01 0.206D+00
 Coeff-Com:  0.825D+00
 Coeff:      0.167D-04-0.235D-04 0.544D-05 0.549D-04-0.115D-04-0.768D-03
 Coeff:     -0.219D-02 0.289D-02-0.391D-02-0.298D-02-0.242D-01 0.206D+00
 Coeff:      0.825D+00
 Gap=     0.028 Goal=   None    Shift=    0.000
 RMSDP=1.07D-06 MaxDP=5.38D-05 DE=-6.36D-08 OVMax= 9.59D-05

 Cycle  14  Pass 1  IDiag  1:
 E= -649.176915361204     Delta-E=       -0.000000002474 Rises=F Damp=F
 DIIS: error= 4.15D-07 at cycle  14 NSaved=  14.
 NSaved=14 IEnMin=14 EnMin= -649.176915361204     IErMin=14 ErrMin= 4.15D-07
 ErrMax= 4.15D-07  0.00D+00 EMaxC= 1.00D-01 BMatC= 6.79D-12 BMatP= 3.09D-10
 IDIUse=1 WtCom= 1.00D+00 WtEn= 0.00D+00
 Coeff-Com: -0.703D-05 0.921D-05 0.254D-05 0.756D-05-0.579D-04-0.243D-03
 Coeff-Com: -0.114D-02 0.121D-02 0.119D-02-0.873D-03-0.857D-02-0.262D-01
 Coeff-Com:  0.121D+00 0.914D+00
 Coeff:     -0.703D-05 0.921D-05 0.254D-05 0.756D-05-0.579D-04-0.243D-03
 Coeff:     -0.114D-02 0.121D-02 0.119D-02-0.873D-03-0.857D-02-0.262D-01
 Coeff:      0.121D+00 0.914D+00
 Gap=     0.028 Goal=   None    Shift=    0.000
 RMSDP=1.70D-07 MaxDP=5.56D-06 DE=-2.47D-09 OVMax= 1.21D-05

 Cycle  15  Pass 1  IDiag  1:
 E= -649.176915361253     Delta-E=       -0.000000000049 Rises=F Damp=F
 DIIS: error= 2.62D-08 at cycle  15 NSaved=  15.
 NSaved=15 IEnMin=15 EnMin= -649.176915361253     IErMin=15 ErrMin= 2.62D-08
 ErrMax= 2.62D-08  0.00D+00 EMaxC= 1.00D-01 BMatC= 1.07D-13 BMatP= 6.79D-12
 IDIUse=1 WtCom= 1.00D+00 WtEn= 0.00D+00
 Coeff-Com: -0.138D-05 0.171D-05 0.581D-06-0.668D-06-0.522D-05-0.251D-04
 Coeff-Com: -0.201D-03 0.150D-03 0.462D-03-0.160D-06-0.192D-02-0.130D-01
 Coeff-Com:  0.753D-02 0.292D+00 0.715D+00
 Coeff:     -0.138D-05 0.171D-05 0.581D-06-0.668D-06-0.522D-05-0.251D-04
 Coeff:     -0.201D-03 0.150D-03 0.462D-03-0.160D-06-0.192D-02-0.130D-01
 Coeff:      0.753D-02 0.292D+00 0.715D+00
 Gap=     0.028 Goal=   None    Shift=    0.000
 RMSDP=2.57D-08 MaxDP=9.72D-07 DE=-4.89D-11 OVMax= 1.26D-06

 Cycle  16  Pass 1  IDiag  1:
 E= -649.176915361256     Delta-E=       -0.000000000003 Rises=F Damp=F
 DIIS: error= 3.10D-08 at cycle  16 NSaved=  16.
 NSaved=16 IEnMin=16 EnMin= -649.176915361256     IErMin=15 ErrMin= 2.62D-08
 ErrMax= 3.10D-08  0.00D+00 EMaxC= 1.00D-01 BMatC= 3.91D-14 BMatP= 1.07D-13
 IDIUse=1 WtCom= 1.00D+00 WtEn= 0.00D+00
 Coeff-Com:  0.301D-07-0.425D-07-0.740D-07-0.290D-07-0.163D-05 0.737D-05
 Coeff-Com:  0.220D-04-0.389D-04 0.766D-05 0.480D-04 0.327D-03-0.111D-02
 Coeff-Com: -0.838D-02-0.211D-01 0.123D+00 0.907D+00
 Coeff:      0.301D-07-0.425D-07-0.740D-07-0.290D-07-0.163D-05 0.737D-05
 Coeff:      0.220D-04-0.389D-04 0.766D-05 0.480D-04 0.327D-03-0.111D-02
 Coeff:     -0.838D-02-0.211D-01 0.123D+00 0.907D+00
 Gap=     0.028 Goal=   None    Shift=    0.000
 RMSDP=1.11D-08 MaxDP=6.37D-07 DE=-2.61D-12 OVMax= 1.01D-06

 Cycle  17  Pass 1  IDiag  1:
 E= -649.176915361260     Delta-E=       -0.000000000004 Rises=F Damp=F
 DIIS: error= 2.99D-09 at cycle  17 NSaved=  17.
 NSaved=17 IEnMin=17 EnMin= -649.176915361260     IErMin=17 ErrMin= 2.99D-09
 ErrMax= 2.99D-09  0.00D+00 EMaxC= 1.00D-01 BMatC= 3.65D-16 BMatP= 3.91D-14
 IDIUse=1 WtCom= 1.00D+00 WtEn= 0.00D+00
 Large coefficients: NSaved= 17 BigCof=    0.00 CofMax=   10.00 Det=-7.67D-16
 Inversion failed.  Reducing to 16 matrices.
 Large coefficients: NSaved= 16 BigCof=    0.00 CofMax=   10.00 Det=-7.84D-16
 Inversion failed.  Reducing to 15 matrices.
 Coeff-Com:  0.310D-07-0.444D-07 0.260D-06 0.260D-06 0.528D-05-0.410D-05
 Coeff-Com: -0.401D-05 0.461D-05 0.588D-04 0.534D-04-0.334D-03-0.509D-02
 Coeff-Com: -0.672D-02 0.220D-01 0.990D+00
 Coeff:      0.310D-07-0.444D-07 0.260D-06 0.260D-06 0.528D-05-0.410D-05
 Coeff:     -0.401D-05 0.461D-05 0.588D-04 0.534D-04-0.334D-03-0.509D-02
 Coeff:     -0.672D-02 0.220D-01 0.990D+00
 Gap=     0.028 Goal=   None    Shift=    0.000
 RMSDP=1.45D-09 MaxDP=5.53D-08 DE=-3.98D-12 OVMax= 1.17D-07

 SCF Done:  E(RB3LYP) =  -649.176915361     A.U. after   17 cycles
            NFock= 17  Conv=0.15D-08     -V/T= 2.0029
 KE= 6.473191418311D+02 PE=-1.725022247992D+03 EE= 3.455069867911D+02
 Leave Link  502 at Sat Oct  7 02:12:20 2023, MaxMem=  1610612736 cpu:             137.5 elap:              25.7
 (Enter /home/sekinelabo/g16/l601.exe)
 Copying SCF densities to generalized density rwf, IOpCl= 0 IROHF=0.

 **********************************************************************

            Population analysis using the SCF Density.

 **********************************************************************

 Orbital symmetries:
       Occupied  (A) (A) (A) (A) (A) (A) (A) (A) (A) (A) (A) (A)
                 (A) (A) (A) (A) (A) (A) (A) (A) (A) (A)
       Virtual   (A) (A) (A) (A) (A) (A) (A) (A) (A) (A) (A) (A)
                 (A) (A) (A) (A) (A) (A) (A) (A) (A) (A) (A) (A)
                 (A) (A) (A) (A) (A) (A) (A) (A) (A) (A) (A) (A)
                 (A) (A) (A) (A) (A) (A) (A) (A) (A) (A) (A) (A)
                 (A) (A) (A) (A) (A) (A) (A) (A) (A) (A) (A) (A)
                 (A) (A) (A) (A) (A) (A) (A) (A) (A) (A) (A) (A)
                 (A) (A) (A) (A) (A) (A) (A) (A) (A) (A) (A) (A)
                 (A) (A) (A) (A) (A) (A) (A) (A) (A) (A) (A) (A)
                 (A) (A)
 The electronic state is 1-A.
 Alpha  occ. eigenvalues --  -38.45669 -38.45469 -38.45398 -38.44785  -2.21347
 Alpha  occ. eigenvalues --   -2.21276  -2.21134  -2.20651  -1.15155  -1.15025
 Alpha  occ. eigenvalues --   -1.15024  -1.14987  -1.14913  -1.14873  -1.14805
 Alpha  occ. eigenvalues --   -1.14804  -1.14772  -1.14308  -1.14284  -1.14233
 Alpha  occ. eigenvalues --   -0.14884  -0.11090
 Alpha virt. eigenvalues --   -0.08283  -0.04810  -0.03276  -0.02974  -0.01856
 Alpha virt. eigenvalues --   -0.01420  -0.01007  -0.00653  -0.00222  -0.00069
 Alpha virt. eigenvalues --    0.00305   0.00877   0.01066   0.01206   0.01317
 Alpha virt. eigenvalues --    0.01424   0.01529   0.01761   0.01871   0.02065
 Alpha virt. eigenvalues --    0.02176   0.02252   0.02310   0.02436   0.02965
 Alpha virt. eigenvalues --    0.03100   0.03232   0.03628   0.04555   0.05033
 Alpha virt. eigenvalues --    0.06814   0.07206   0.07501   0.07765   0.08133
 Alpha virt. eigenvalues --    0.08269   0.08324   0.08432   0.08590   0.09352
 Alpha virt. eigenvalues --    0.10323   0.11010   0.11661   0.11828   0.14033
 Alpha virt. eigenvalues --    0.16094   0.28158   0.28673   0.29612   0.30246
 Alpha virt. eigenvalues --    0.33039   0.34512   0.34772   0.34808   0.34832
 Alpha virt. eigenvalues --    0.34946   0.35130   0.35244   0.36466   0.37136
 Alpha virt. eigenvalues --    0.37309   0.42310   0.42376   0.42624   0.42719
 Alpha virt. eigenvalues --    0.43320   0.43376   0.43623   0.44056   0.45139
 Alpha virt. eigenvalues --    0.46091   0.46246   0.46651   0.51216   0.52542
 Alpha virt. eigenvalues --    0.53338   0.59344   0.81607   2.01291   2.03694
 Alpha virt. eigenvalues --    2.08432   2.14151   4.41650   4.42366   4.43021
 Alpha virt. eigenvalues --    4.43258   4.43469   4.43679   4.43858   4.44526
 Alpha virt. eigenvalues --    4.45851   4.47002   4.50635   4.75491  96.20366
 Alpha virt. eigenvalues --   96.23270  96.29536  96.37177
          Condensed to atoms (all electrons):
               1          2          3          4
     1  Na  10.838764   0.259925  -0.158467  -0.050537
     2  Na   0.259925  10.659463   0.206114  -0.081267
     3  Na  -0.158467   0.206114  10.789737   0.205843
     4  Na  -0.050537  -0.081267   0.205843  10.948815
 Mulliken charges:
               1
     1  Na   0.110315
     2  Na  -0.044234
     3  Na  -0.043227
     4  Na  -0.022854
 Sum of Mulliken charges =  -0.00000
 Mulliken charges with hydrogens summed into heavy atoms:
               1
     1  Na   0.110315
     2  Na  -0.044234
     3  Na  -0.043227
     4  Na  -0.022854
 Electronic spatial extent (au):  <R**2>=           2169.0883
 Charge=             -0.0000 electrons
 Dipole moment (field-independent basis, Debye):
    X=             -1.2413    Y=             -0.2418    Z=             -0.2241  Tot=              1.2843
 Quadrupole moment (field-independent basis, Debye-Ang):
   XX=            -31.6564   YY=            -42.7219   ZZ=            -40.2068
   XY=              0.2394   XZ=              2.5061   YZ=             -0.1592
 Traceless Quadrupole moment (field-independent basis, Debye-Ang):
   XX=              6.5386   YY=             -4.5269   ZZ=             -2.0118
   XY=              0.2394   XZ=              2.5061   YZ=             -0.1592
 Octapole moment (field-independent basis, Debye-Ang**2):
  XXX=            -16.7769  YYY=              2.0712  ZZZ=              3.0191  XYY=             -8.6640
  XXY=            -30.8307  XXZ=            -10.4123  XZZ=            -12.9564  YZZ=              2.8911
  YYZ=             -1.8963  XYZ=             -5.4625
 Hexadecapole moment (field-independent basis, Debye-Ang**3):
 XXXX=          -2746.5545 YYYY=           -308.3160 ZZZZ=           -259.2623 XXXY=             -3.2493
 XXXZ=            117.1149 YYYX=              4.4710 YYYZ=             -1.8781 ZZZX=              7.5284
 ZZZY=              0.3790 XXYY=           -614.3190 XXZZ=           -623.7239 YYZZ=            -93.7732
 XXYZ=             14.2966 YYXZ=              4.9930 ZZXY=             -0.0814
 N-N= 8.301920400892D+01 E-N=-1.725022247728D+03  KE= 6.473191418311D+02
 No NMR shielding tensors so no spin-rotation constants.
 Leave Link  601 at Sat Oct  7 02:12:21 2023, MaxMem=  1610612736 cpu:               6.6 elap:               1.2
 (Enter /home/sekinelabo/g16/l701.exe)
 ... and contract with generalized density number  0.
 Compute integral first derivatives.
 Leave Link  701 at Sat Oct  7 02:12:22 2023, MaxMem=  1610612736 cpu:               6.2 elap:               1.1
 (Enter /home/sekinelabo/g16/l702.exe)
 L702 exits ... SP integral derivatives will be done elsewhere.
 Leave Link  702 at Sat Oct  7 02:12:22 2023, MaxMem=  1610612736 cpu:               0.4 elap:               0.1
 (Enter /home/sekinelabo/g16/l703.exe)
 Integral derivatives from FoFJK, PRISM(SPDF).
 Compute integral first derivatives, UseDBF=F ICtDFT=           0.
 Calling FoFJK, ICntrl=      2127 FMM=F ISym2X=0 I1Cent= 0 IOpClX= 0 NMat=1 NMatS=1 NMatT=0.
 FoFJK:  IHMeth= 1 ICntrl=    2127 DoSepK=F KAlg= 0 I1Cent=           0 FoldK=F
 IRaf=         0 NMat=       1 IRICut=       1 DoRegI=T DoRafI=F ISym2E= 0 IDoP0=0 IntGTp=1.
 FoFCou: FMM=F IPFlag=           0 FMFlag=      100000 FMFlg1=         800
         NFxFlg=           0 DoJE=F BraDBF=F KetDBF=F FulRan=T
         wScrn=  0.000000 ICntrl=      2127 IOpCl=  0 I1Cent=           0 NGrid=           0
         NMat0=    1 NMatS0=      1 NMatT0=    0 NMatD0=    1 NMtDS0=    0 NMtDT0=    0
 Symmetry not used in FoFCou.
 Leave Link  703 at Sat Oct  7 02:12:25 2023, MaxMem=  1610612736 cpu:              11.0 elap:               2.0
 (Enter /home/sekinelabo/g16/l716.exe)
 Dipole        =-4.88366042D-01-9.51390310D-02-8.81531445D-02
 ***** Axes restored to original set *****
 -------------------------------------------------------------------
 Center     Atomic                   Forces (Hartrees/Bohr)
 Number     Number              X              Y              Z
 -------------------------------------------------------------------
      1       11          -0.001210648    0.000191914    0.003189773
      2       11          -0.006388387   -0.000372412   -0.012118189
      3       11           0.006971980   -0.003246956    0.013097508
      4       11           0.000627055    0.003427454   -0.004169092
 -------------------------------------------------------------------
 Cartesian Forces:  Max     0.013097508 RMS     0.006189344
 Z-matrix is all fixed cartesians, so copy forces.
 Force constants in Cartesian coordinates: 
                1             2             3             4             5 
      1  0.900303D-02
      2  0.000000D+00  0.000000D+00
      3 -0.579604D-02  0.000000D+00  0.167700D-01
      4 -0.142959D-01  0.000000D+00  0.297126D-02  0.465579D-01
      5  0.000000D+00  0.000000D+00  0.000000D+00  0.000000D+00  0.000000D+00
      6  0.970793D-02  0.000000D+00 -0.146823D-01  0.168645D-01  0.000000D+00
      7  0.529291D-02  0.000000D+00  0.282477D-02 -0.322620D-01  0.000000D+00
      8  0.000000D+00  0.000000D+00  0.000000D+00  0.000000D+00  0.000000D+00
      9 -0.391189D-02  0.000000D+00 -0.208774D-02 -0.198357D-01  0.000000D+00
     10  0.000000D+00  0.000000D+00  0.000000D+00  0.000000D+00  0.000000D+00
     11  0.000000D+00  0.000000D+00  0.000000D+00  0.000000D+00  0.000000D+00
     12  0.000000D+00  0.000000D+00  0.000000D+00  0.000000D+00  0.000000D+00
                6             7             8             9            10 
      6  0.541434D-01
      7 -0.265724D-01  0.269691D-01
      8  0.000000D+00  0.000000D+00  0.000000D+00
      9 -0.394611D-01  0.237476D-01  0.000000D+00  0.415489D-01
     10  0.000000D+00  0.000000D+00  0.000000D+00  0.000000D+00  0.100000D+01
     11  0.000000D+00  0.000000D+00  0.000000D+00  0.000000D+00  0.000000D+00
     12  0.000000D+00  0.000000D+00  0.000000D+00  0.000000D+00  0.000000D+00
               11            12 
     11  0.100000D+01
     12  0.000000D+00  0.100000D+01
 Leave Link  716 at Sat Oct  7 02:12:25 2023, MaxMem=  1610612736 cpu:               0.5 elap:               0.1
 (Enter /home/sekinelabo/g16/l103.exe)

 GradGradGradGradGradGradGradGradGradGradGradGradGradGradGradGradGradGrad
 Berny optimization.
 Search for a local minimum.
 Step number   1 out of a maximum of    2
 All quantities printed in internal units (Hartrees-Bohrs-Radians)
 Second derivative matrix not updated -- first step.
 The second derivative matrix:
                          X1        Y1        Z1        X2        Y2
           X1           0.00900
           Y1           0.00000   0.00000
           Z1          -0.00580  -0.00000   0.01677
           X2          -0.01430   0.00000   0.00297   0.04656
           Y2           0.00000  -0.00000  -0.00000   0.00000  -0.00000
           Z2           0.00971   0.00000  -0.01468   0.01686   0.00000
           X3           0.00529  -0.00000   0.00282  -0.03226   0.00000
           Y3          -0.00000   0.00000   0.00000   0.00000  -0.00000
           Z3          -0.00391   0.00000  -0.00209  -0.01984  -0.00000
           X4           0.00000   0.00000   0.00000   0.00000   0.00000
           Y4           0.00000   0.00000   0.00000   0.00000   0.00000
           Z4           0.00000   0.00000   0.00000   0.00000   0.00000
                          Z2        X3        Y3        Z3        X4
           Z2           0.05414
           X3          -0.02657   0.02697
           Y3           0.00000  -0.00000   0.00000
           Z3          -0.03946   0.02375  -0.00000   0.04155
           X4           0.00000   0.00000   0.00000   0.00000   1.00000
           Y4           0.00000   0.00000   0.00000   0.00000   0.00000
           Z4           0.00000   0.00000   0.00000   0.00000   0.00000
                          Y4        Z4
           Y4           1.00000
           Z4          -0.00000   1.00000
 ITU=  0
     Eigenvalues ---    0.02082   0.05082   0.10441   0.12335   0.20180
     Eigenvalues ---    0.75000
 Angle between quadratic step and forces=  24.00 degrees.
 Linear search not attempted -- first point.
 B after Tr=    -0.000000   -0.000000    0.000000
         Rot=    1.000000    0.000000   -0.000000   -0.000000 Ang=   0.00 deg.
 Variable       Old X    -DE/DX   Delta X   Delta X   Delta X     New X
                                 (Linear)    (Quad)   (Total)
    X1        0.00000  -0.00121   0.00000  -0.02939  -0.02939  -0.02939
    Y1       -0.00000   0.00019   0.00000   0.00196   0.00196   0.00196
    Z1       -0.00000   0.00319   0.00000  -0.00467  -0.00467  -0.00467
    X2       -3.06234  -0.00639   0.00000  -0.01346  -0.01346  -3.07580
    Y2       -0.00000  -0.00037   0.00000   0.00546   0.00546   0.00546
    Z2        5.73804  -0.01212   0.00000  -0.12305  -0.12305   5.61499
    X3        0.00000   0.00697   0.00000   0.03798   0.03798   0.03798
    Y3       -0.00000  -0.00325   0.00000  -0.01597  -0.01597  -0.01597
    Z3        9.88147   0.01310   0.00000   0.13118   0.13118  10.01265
    X4       -1.41540   0.00063   0.00000   0.00487   0.00487  -1.41053
    Y4       -5.91734   0.00343   0.00000   0.00855   0.00855  -5.90879
    Z4       17.18258  -0.00417   0.00000  -0.00346  -0.00346  17.17912
         Item               Value     Threshold  Converged?
 Maximum Force            0.013098     0.000450     NO 
 RMS     Force            0.006189     0.000300     NO 
 Maximum Displacement     0.131179     0.001800     NO 
 RMS     Displacement     0.054204     0.001200     NO 
 Predicted change in Energy=-1.838906D-03
 GradGradGradGradGradGradGradGradGradGradGradGradGradGradGradGradGradGrad

 Leave Link  103 at Sat Oct  7 02:12:25 2023, MaxMem=  1610612736 cpu:               2.3 elap:               0.4
 (Enter /home/sekinelabo/g16/l9999.exe)
 1\1\GINC-SEKINELABO-XA7R-R37\Force\RB3LYP\6-311+G(d)\Na4\SEKINELABO\07
 -Oct-2023\0\\#p B3LYP/6-311+g(d) force\\\0,1\Na,0.,0.,0.\Na,-1.6205186
 29,0.,3.0364400453\Na,0.,0.,5.2290502319\Na,-0.7489965115,-3.131321211
 4,9.0926281798\\Version=ES64L-G16RevB.01\State=1-A\HF=-649.1769154\RMS
 D=1.451e-09\RMSF=6.189e-03\Dipole=0.1103149,0.0789624,-0.4867436\Quadr
 upole=-1.394619,-2.4674667,3.8620858,0.9272702,-1.8700464,-2.5068427\P
 G=C01 [X(Na4)]\\@


 I CLAIM NOT TO HAVE CONTROLLED EVENTS,
 BUT CONFESS PLAINLY THAT EVENTS HAVE CONTROLLED ME.

                                         A. LINCOLN
 Job cpu time:       0 days  0 hours  3 minutes 23.0 seconds.
 Elapsed time:       0 days  0 hours  0 minutes 38.3 seconds.
 File lengths (MBytes):  RWF=     10 Int=      0 D2E=      0 Chk=      2 Scr=      1
 Normal termination of Gaussian 16 at Sat Oct  7 02:12:25 2023.
