 Entering Gaussian System, Link 0=g16
 Initial command:
 /home/sekinelabo/g16/l1.exe "/home/sekinelabo/g16temp/Gau-708792.inp" -scrdir="/home/sekinelabo/g16temp/"
 Entering Link 1 = /home/sekinelabo/g16/l1.exe PID=    708815.
  
 Copyright (c) 1988-2017, Gaussian, Inc.  All Rights Reserved.
  
 This is part of the Gaussian(R) 16 program.  It is based on
 the Gaussian(R) 09 system (copyright 2009, Gaussian, Inc.),
 the Gaussian(R) 03 system (copyright 2003, Gaussian, Inc.),
 the Gaussian(R) 98 system (copyright 1998, Gaussian, Inc.),
 the Gaussian(R) 94 system (copyright 1995, Gaussian, Inc.),
 the Gaussian 92(TM) system (copyright 1992, Gaussian, Inc.),
 the Gaussian 90(TM) system (copyright 1990, Gaussian, Inc.),
 the Gaussian 88(TM) system (copyright 1988, Gaussian, Inc.),
 the Gaussian 86(TM) system (copyright 1986, Carnegie Mellon
 University), and the Gaussian 82(TM) system (copyright 1983,
 Carnegie Mellon University). Gaussian is a federally registered
 trademark of Gaussian, Inc.
  
 This software contains proprietary and confidential information,
 including trade secrets, belonging to Gaussian, Inc.
  
 This software is provided under written license and may be
 used, copied, transmitted, or stored only in accord with that
 written license.
  
 The following legend is applicable only to US Government
 contracts under FAR:
  
                    RESTRICTED RIGHTS LEGEND
  
 Use, reproduction and disclosure by the US Government is
 subject to restrictions as set forth in subparagraphs (a)
 and (c) of the Commercial Computer Software - Restricted
 Rights clause in FAR 52.227-19.
  
 Gaussian, Inc.
 340 Quinnipiac St., Bldg. 40, Wallingford CT 06492
  
  
 ---------------------------------------------------------------
 Warning -- This program may not be used in any manner that
 competes with the business of Gaussian, Inc. or will provide
 assistance to any competitor of Gaussian, Inc.  The licensee
 of this program is prohibited from giving any competitor of
 Gaussian, Inc. access to this program.  By using this program,
 the user acknowledges that Gaussian, Inc. is engaged in the
 business of creating and licensing software in the field of
 computational chemistry and represents and warrants to the
 licensee that it is not a competitor of Gaussian, Inc. and that
 it will not use this program in any manner prohibited above.
 ---------------------------------------------------------------
  

 Cite this work as:
 Gaussian 16, Revision B.01,
 M. J. Frisch, G. W. Trucks, H. B. Schlegel, G. E. Scuseria, 
 M. A. Robb, J. R. Cheeseman, G. Scalmani, V. Barone, 
 G. A. Petersson, H. Nakatsuji, X. Li, M. Caricato, A. V. Marenich, 
 J. Bloino, B. G. Janesko, R. Gomperts, B. Mennucci, H. P. Hratchian, 
 J. V. Ortiz, A. F. Izmaylov, J. L. Sonnenberg, D. Williams-Young, 
 F. Ding, F. Lipparini, F. Egidi, J. Goings, B. Peng, A. Petrone, 
 T. Henderson, D. Ranasinghe, V. G. Zakrzewski, J. Gao, N. Rega, 
 G. Zheng, W. Liang, M. Hada, M. Ehara, K. Toyota, R. Fukuda, 
 J. Hasegawa, M. Ishida, T. Nakajima, Y. Honda, O. Kitao, H. Nakai, 
 T. Vreven, K. Throssell, J. A. Montgomery, Jr., J. E. Peralta, 
 F. Ogliaro, M. J. Bearpark, J. J. Heyd, E. N. Brothers, K. N. Kudin, 
 V. N. Staroverov, T. A. Keith, R. Kobayashi, J. Normand, 
 K. Raghavachari, A. P. Rendell, J. C. Burant, S. S. Iyengar, 
 J. Tomasi, M. Cossi, J. M. Millam, M. Klene, C. Adamo, R. Cammi, 
 J. W. Ochterski, R. L. Martin, K. Morokuma, O. Farkas, 
 J. B. Foresman, and D. J. Fox, Gaussian, Inc., Wallingford CT, 2016.
 
 ******************************************
 Gaussian 16:  ES64L-G16RevB.01 20-Dec-2017
                 6-Oct-2023 
 ******************************************
 %NProcShared=16
 Will use up to   16 processors via shared memory.
 %mem=12GB
 %Chk=checkpoint.chk
 -------------------------
 #p B3LYP/6-311+g(d) force
 -------------------------
 1/10=7,30=1,38=1/1,3;
 2/12=2,17=6,18=5,40=1/2;
 3/5=4,6=6,7=11,11=2,25=1,30=1,71=1,74=-5/1,2,3;
 4//1;
 5/5=2,38=5/2;
 6/7=2,8=2,9=2,10=2,28=1/1;
 7/29=1/1,2,3,16;
 1/10=7,30=1/3;
 99//99;
 Leave Link    1 at Fri Oct  6 21:59:34 2023, MaxMem=  1610612736 cpu:               0.5 elap:               0.2
 (Enter /home/sekinelabo/g16/l101.exe)


 Symbolic Z-matrix:
 Charge =  0 Multiplicity = 1
 Na                    0.        0.        0. 
 Na                   -3.394     0.        0.76662 
 Na                    0.        0.        5.00313 
 Na                   -2.14056  -3.0197    2.21247 
 
 ITRead=  0  0  0  0
 MicOpt= -1 -1 -1 -1
 NAtoms=      4 NQM=        4 NQMF=       0 NMMI=      0 NMMIF=      0
                NMic=       0 NMicF=      0.
                    Isotopes and Nuclear Properties:
 (Nuclear quadrupole moments (NQMom) in fm**2, nuclear magnetic moments (NMagM)
  in nuclear magnetons)

  Atom         1           2           3           4
 IAtWgt=          23          23          23          23
 AtmWgt=  22.9897697  22.9897697  22.9897697  22.9897697
 NucSpn=           3           3           3           3
 AtZEff=  -0.0000000  -0.0000000  -0.0000000  -0.0000000
 NQMom=   10.4000000  10.4000000  10.4000000  10.4000000
 NMagM=    2.2175200   2.2175200   2.2175200   2.2175200
 AtZNuc=  11.0000000  11.0000000  11.0000000  11.0000000
 Leave Link  101 at Fri Oct  6 21:59:35 2023, MaxMem=  1610612736 cpu:               2.1 elap:               0.9
 (Enter /home/sekinelabo/g16/l103.exe)

 GradGradGradGradGradGradGradGradGradGradGradGradGradGradGradGradGradGrad
 Berny optimization.
 Initialization pass.
 Trust Radius=3.00D-01 FncErr=1.00D-07 GrdErr=1.00D-07 EigMax=2.50D+02 EigMin=1.00D-04
 Number of steps in this run=      2 maximum allowed number of steps=      2.
 GradGradGradGradGradGradGradGradGradGradGradGradGradGradGradGradGradGrad

 Leave Link  103 at Fri Oct  6 21:59:35 2023, MaxMem=  1610612736 cpu:               0.5 elap:               0.3
 (Enter /home/sekinelabo/g16/l202.exe)
                          Input orientation:                          
 ---------------------------------------------------------------------
 Center     Atomic      Atomic             Coordinates (Angstroms)
 Number     Number       Type             X           Y           Z
 ---------------------------------------------------------------------
      1         11           0        0.000000    0.000000    0.000000
      2         11           0       -3.394000    0.000000    0.766620
      3         11           0        0.000000    0.000000    5.003128
      4         11           0       -2.140561   -3.019697    2.212472
 ---------------------------------------------------------------------
                    Distance matrix (angstroms):
                    1          2          3          4
     1  Na   0.000000
     2  Na   3.479503   0.000000
     3  Na   5.003128   5.428373   0.000000
     4  Na   4.312262   3.574936   4.635550   0.000000
 Stoichiometry    Na4
 Framework group  C1[X(Na4)]
 Deg. of freedom     6
 Full point group                 C1      NOp   1
 Largest Abelian subgroup         C1      NOp   1
 Largest concise Abelian subgroup C1      NOp   1
                         Standard orientation:                         
 ---------------------------------------------------------------------
 Center     Atomic      Atomic             Coordinates (Angstroms)
 Number     Number       Type             X           Y           Z
 ---------------------------------------------------------------------
      1         11           0        1.162315   -2.051813   -0.951681
      2         11           0        1.946952    0.290358    1.498936
      3         11           0       -3.339076   -0.396411    0.472539
      4         11           0        0.229809    2.157866   -1.019794
 ---------------------------------------------------------------------
 Rotational constants (GHZ):           1.6255184           1.0589201           0.8637087
 Leave Link  202 at Fri Oct  6 21:59:36 2023, MaxMem=  1610612736 cpu:               1.0 elap:               0.6
 (Enter /home/sekinelabo/g16/l301.exe)
 Standard basis: 6-311+G(d) (5D, 7F)
 Ernie: Thresh=  0.10000D-02 Tol=  0.10000D-05 Strict=F.
 There are   124 symmetry adapted cartesian basis functions of A   symmetry.
 There are   120 symmetry adapted basis functions of A   symmetry.
   120 basis functions,   200 primitive gaussians,   124 cartesian basis functions
    22 alpha electrons       22 beta electrons
       nuclear repulsion energy        89.5680785678 Hartrees.
 IExCor=  402 DFT=T Ex+Corr=B3LYP ExCW=0 ScaHFX=  0.200000
 ScaDFX=  0.800000  0.720000  1.000000  0.810000 ScalE2=  1.000000  1.000000
 IRadAn=      5 IRanWt=     -1 IRanGd=            0 ICorTp=0 IEmpDi=  4
 NAtoms=    4 NActive=    4 NUniq=    4 SFac= 1.00D+00 NAtFMM=   60 NAOKFM=F Big=F
 Integral buffers will be    131072 words long.
 Raffenetti 2 integral format.
 Two-electron integral symmetry is turned on.
 Leave Link  301 at Fri Oct  6 21:59:36 2023, MaxMem=  1610612736 cpu:               0.7 elap:               0.4
 (Enter /home/sekinelabo/g16/l302.exe)
 NPDir=0 NMtPBC=     1 NCelOv=     1 NCel=       1 NClECP=     1 NCelD=      1
         NCelK=      1 NCelE2=     1 NClLst=     1 CellRange=     0.0.
 One-electron integrals computed using PRISM.
 One-electron integral symmetry used in STVInt
 NBasis=   120 RedAO= T EigKep=  1.15D-04  NBF=   120
 NBsUse=   120 1.00D-06 EigRej= -1.00D+00 NBFU=   120
 Precomputing XC quadrature grid using
 IXCGrd= 4 IRadAn=           5 IRanWt=          -1 IRanGd=           0 AccXCQ= 0.00D+00.
 Generated NRdTot=       0 NPtTot=           0 NUsed=           0 NTot=          32
 NSgBfM=   118   118   118   118   118 MxSgAt=     4 MxSgA2=     4.
 Leave Link  302 at Fri Oct  6 21:59:48 2023, MaxMem=  1610612736 cpu:              19.1 elap:              11.8
 (Enter /home/sekinelabo/g16/l303.exe)
 DipDrv:  MaxL=1.
 Leave Link  303 at Fri Oct  6 21:59:50 2023, MaxMem=  1610612736 cpu:               2.6 elap:               1.6
 (Enter /home/sekinelabo/g16/l401.exe)
 ExpMin= 7.60D-03 ExpMax= 3.62D+04 ExpMxC= 1.21D+03 IAcc=3 IRadAn=         5 AccDes= 0.00D+00
 Harris functional with IExCor=  402 and IRadAn=       5 diagonalized for initial guess.
 HarFok:  IExCor=  402 AccDes= 0.00D+00 IRadAn=         5 IDoV= 1 UseB2=F ITyADJ=14
 ICtDFT=  3500011 ScaDFX=  1.000000  1.000000  1.000000  1.000000
 FoFCou: FMM=F IPFlag=           0 FMFlag=      100000 FMFlg1=           0
         NFxFlg=           0 DoJE=T BraDBF=F KetDBF=T FulRan=T
         wScrn=  0.000000 ICntrl=       500 IOpCl=  0 I1Cent=   200000004 NGrid=           0
         NMat0=    1 NMatS0=      1 NMatT0=    0 NMatD0=    1 NMtDS0=    0 NMtDT0=    0
 Petite list used in FoFCou.
 Harris En= -649.053023110873    
 JPrj=0 DoOrth=F DoCkMO=F.
 Leave Link  401 at Fri Oct  6 21:59:59 2023, MaxMem=  1610612736 cpu:              14.9 elap:               9.4
 (Enter /home/sekinelabo/g16/l502.exe)
 Keep R1 ints in memory in canonical form, NReq=41581762.
 FoFCou: FMM=F IPFlag=           0 FMFlag=           0 FMFlg1=           0
         NFxFlg=           0 DoJE=F BraDBF=F KetDBF=F FulRan=T
         wScrn=  0.000000 ICntrl=       600 IOpCl=  0 I1Cent=           0 NGrid=           0
         NMat0=    1 NMatS0=   7260 NMatT0=    0 NMatD0=    1 NMtDS0=    0 NMtDT0=    0
 Symmetry not used in FoFCou.
 Two-electron integral symmetry not used.
 Closed shell SCF:
 Using DIIS extrapolation, IDIIS=  1040.
 NGot=  1610612736 LenX=  1584221380 LenY=  1584205563
 Requested convergence on RMS density matrix=1.00D-08 within 128 cycles.
 Requested convergence on MAX density matrix=1.00D-06.
 Requested convergence on             energy=1.00D-06.
 No special actions if energy rises.

 Cycle   1  Pass 1  IDiag  1:
 E= -649.148112703740    
 DIIS: error= 1.58D-02 at cycle   1 NSaved=   1.
 NSaved= 1 IEnMin= 1 EnMin= -649.148112703740     IErMin= 1 ErrMin= 1.58D-02
 ErrMax= 1.58D-02  0.00D+00 EMaxC= 1.00D-01 BMatC= 2.80D-02 BMatP= 2.80D-02
 IDIUse=3 WtCom= 8.42D-01 WtEn= 1.58D-01
 Coeff-Com:  0.100D+01
 Coeff-En:   0.100D+01
 Coeff:      0.100D+01
 Gap=    -0.018 Goal=   None    Shift=    0.000
 GapD=   -0.018 DampG=0.250 DampE=0.500 DampFc=0.2500 IDamp=-1.
 Damping current iteration by 2.50D-01
 RMSDP=9.15D-03 MaxDP=4.23D-01              OVMax= 8.69D-01

 Cycle   2  Pass 1  IDiag  1:
 E= -649.159397707791     Delta-E=       -0.011285004051 Rises=F Damp=T
 DIIS: error= 1.07D-02 at cycle   2 NSaved=   2.
 NSaved= 2 IEnMin= 2 EnMin= -649.159397707791     IErMin= 2 ErrMin= 1.07D-02
 ErrMax= 1.07D-02  0.00D+00 EMaxC= 1.00D-01 BMatC= 1.01D-02 BMatP= 2.80D-02
 IDIUse=3 WtCom= 8.93D-01 WtEn= 1.07D-01
 Coeff-Com: -0.101D+01 0.201D+01
 Coeff-En:   0.000D+00 0.100D+01
 Coeff:     -0.900D+00 0.190D+01
 Gap=     0.013 Goal=   None    Shift=    0.000
 RMSDP=3.54D-03 MaxDP=1.62D-01 DE=-1.13D-02 OVMax= 8.33D-01

 Cycle   3  Pass 1  IDiag  1:
 E= -649.128841461992     Delta-E=        0.030556245798 Rises=F Damp=F
 DIIS: error= 5.53D-03 at cycle   3 NSaved=   3.
 NSaved= 3 IEnMin= 2 EnMin= -649.159397707791     IErMin= 3 ErrMin= 5.53D-03
 ErrMax= 5.53D-03  0.00D+00 EMaxC= 1.00D-01 BMatC= 5.90D-03 BMatP= 1.01D-02
 IDIUse=3 WtCom= 9.45D-01 WtEn= 5.53D-02
 Coeff-Com: -0.676D+00 0.122D+01 0.454D+00
 Coeff-En:   0.000D+00 0.965D+00 0.348D-01
 Coeff:     -0.639D+00 0.121D+01 0.431D+00
 Gap=     0.006 Goal=   None    Shift=    0.000
 RMSDP=6.65D-03 MaxDP=3.96D-01 DE= 3.06D-02 OVMax= 7.00D-01

 Cycle   4  Pass 1  IDiag  1:
 E= -649.155722047796     Delta-E=       -0.026880585803 Rises=F Damp=F
 DIIS: error= 4.38D-03 at cycle   4 NSaved=   4.
 NSaved= 4 IEnMin= 2 EnMin= -649.159397707791     IErMin= 4 ErrMin= 4.38D-03
 ErrMax= 4.38D-03  0.00D+00 EMaxC= 1.00D-01 BMatC= 2.30D-03 BMatP= 5.90D-03
 IDIUse=3 WtCom= 9.56D-01 WtEn= 4.38D-02
 Coeff-Com: -0.932D-01 0.196D+00 0.357D+00 0.540D+00
 Coeff-En:   0.000D+00 0.000D+00 0.366D+00 0.634D+00
 Coeff:     -0.892D-01 0.187D+00 0.357D+00 0.544D+00
 Gap=     0.014 Goal=   None    Shift=    0.000
 RMSDP=3.47D-03 MaxDP=1.66D-01 DE=-2.69D-02 OVMax= 3.73D-01

 Cycle   5  Pass 1  IDiag  1:
 E= -649.175398773974     Delta-E=       -0.019676726179 Rises=F Damp=F
 DIIS: error= 1.27D-03 at cycle   5 NSaved=   5.
 NSaved= 5 IEnMin= 5 EnMin= -649.175398773974     IErMin= 5 ErrMin= 1.27D-03
 ErrMax= 1.27D-03  0.00D+00 EMaxC= 1.00D-01 BMatC= 2.18D-04 BMatP= 2.30D-03
 IDIUse=3 WtCom= 9.87D-01 WtEn= 1.27D-02
 Coeff-Com: -0.679D-01 0.925D-01-0.134D-01 0.171D+00 0.818D+00
 Coeff-En:   0.000D+00 0.000D+00 0.000D+00 0.123D+00 0.877D+00
 Coeff:     -0.671D-01 0.914D-01-0.132D-01 0.170D+00 0.819D+00
 Gap=     0.021 Goal=   None    Shift=    0.000
 RMSDP=6.77D-04 MaxDP=3.55D-02 DE=-1.97D-02 OVMax= 5.24D-02

 Cycle   6  Pass 1  IDiag  1:
 E= -649.176935406065     Delta-E=       -0.001536632091 Rises=F Damp=F
 DIIS: error= 3.35D-04 at cycle   6 NSaved=   6.
 NSaved= 6 IEnMin= 6 EnMin= -649.176935406065     IErMin= 6 ErrMin= 3.35D-04
 ErrMax= 3.35D-04  0.00D+00 EMaxC= 1.00D-01 BMatC= 2.19D-05 BMatP= 2.18D-04
 IDIUse=3 WtCom= 9.97D-01 WtEn= 3.35D-03
 Coeff-Com: -0.353D-01 0.471D-01-0.229D-01 0.621D-01 0.198D+00 0.751D+00
 Coeff-En:   0.000D+00 0.000D+00 0.000D+00 0.000D+00 0.000D+00 0.100D+01
 Coeff:     -0.351D-01 0.469D-01-0.228D-01 0.619D-01 0.197D+00 0.752D+00
 Gap=     0.022 Goal=   None    Shift=    0.000
 RMSDP=1.75D-04 MaxDP=9.73D-03 DE=-1.54D-03 OVMax= 1.03D-02

 Cycle   7  Pass 1  IDiag  1:
 E= -649.176940886529     Delta-E=       -0.000005480464 Rises=F Damp=F
 DIIS: error= 4.20D-04 at cycle   7 NSaved=   7.
 NSaved= 7 IEnMin= 7 EnMin= -649.176940886529     IErMin= 6 ErrMin= 3.35D-04
 ErrMax= 4.20D-04  0.00D+00 EMaxC= 1.00D-01 BMatC= 1.62D-05 BMatP= 2.19D-05
 IDIUse=3 WtCom= 9.97D-01 WtEn= 3.35D-03
 Coeff-Com: -0.143D-01 0.187D-01-0.147D-01 0.398D-01-0.268D-01 0.429D+00
 Coeff-Com:  0.568D+00
 Coeff-En:   0.000D+00 0.000D+00 0.000D+00 0.000D+00 0.000D+00 0.432D+00
 Coeff-En:   0.568D+00
 Coeff:     -0.143D-01 0.186D-01-0.146D-01 0.397D-01-0.267D-01 0.429D+00
 Coeff:      0.568D+00
 Gap=     0.022 Goal=   None    Shift=    0.000
 RMSDP=1.08D-04 MaxDP=3.86D-03 DE=-5.48D-06 OVMax= 8.02D-03

 Cycle   8  Pass 1  IDiag  1:
 E= -649.177017034724     Delta-E=       -0.000076148195 Rises=F Damp=F
 DIIS: error= 1.91D-04 at cycle   8 NSaved=   8.
 NSaved= 8 IEnMin= 8 EnMin= -649.177017034724     IErMin= 8 ErrMin= 1.91D-04
 ErrMax= 1.91D-04  0.00D+00 EMaxC= 1.00D-01 BMatC= 4.95D-06 BMatP= 1.62D-05
 IDIUse=3 WtCom= 9.98D-01 WtEn= 1.91D-03
 Coeff-Com: -0.221D-02 0.286D-02-0.736D-02 0.211D-01-0.824D-01 0.382D-01
 Coeff-Com:  0.221D+00 0.809D+00
 Coeff-En:   0.000D+00 0.000D+00 0.000D+00 0.000D+00 0.000D+00 0.000D+00
 Coeff-En:   0.000D+00 0.100D+01
 Coeff:     -0.220D-02 0.285D-02-0.734D-02 0.211D-01-0.823D-01 0.381D-01
 Coeff:      0.220D+00 0.810D+00
 Gap=     0.022 Goal=   None    Shift=    0.000
 RMSDP=8.05D-05 MaxDP=4.33D-03 DE=-7.61D-05 OVMax= 6.77D-03

 Cycle   9  Pass 1  IDiag  1:
 E= -649.177049552413     Delta-E=       -0.000032517690 Rises=F Damp=F
 DIIS: error= 7.05D-05 at cycle   9 NSaved=   9.
 NSaved= 9 IEnMin= 9 EnMin= -649.177049552413     IErMin= 9 ErrMin= 7.05D-05
 ErrMax= 7.05D-05  0.00D+00 EMaxC= 1.00D-01 BMatC= 7.78D-07 BMatP= 4.95D-06
 IDIUse=1 WtCom= 1.00D+00 WtEn= 0.00D+00
 Coeff-Com:  0.424D-03-0.578D-03-0.162D-02 0.628D-02-0.365D-01-0.487D-01
 Coeff-Com: -0.285D-01 0.167D+00 0.943D+00
 Coeff:      0.424D-03-0.578D-03-0.162D-02 0.628D-02-0.365D-01-0.487D-01
 Coeff:     -0.285D-01 0.167D+00 0.943D+00
 Gap=     0.022 Goal=   None    Shift=    0.000
 RMSDP=3.43D-05 MaxDP=1.81D-03 DE=-3.25D-05 OVMax= 2.74D-03

 Cycle  10  Pass 1  IDiag  1:
 E= -649.177054506020     Delta-E=       -0.000004953607 Rises=F Damp=F
 DIIS: error= 2.65D-05 at cycle  10 NSaved=  10.
 NSaved=10 IEnMin=10 EnMin= -649.177054506020     IErMin=10 ErrMin= 2.65D-05
 ErrMax= 2.65D-05  0.00D+00 EMaxC= 1.00D-01 BMatC= 8.46D-08 BMatP= 7.78D-07
 IDIUse=1 WtCom= 1.00D+00 WtEn= 0.00D+00
 Coeff-Com: -0.176D-03 0.250D-03-0.260D-03 0.145D-02-0.525D-02-0.148D-01
 Coeff-Com: -0.266D-01-0.844D-01 0.315D+00 0.815D+00
 Coeff:     -0.176D-03 0.250D-03-0.260D-03 0.145D-02-0.525D-02-0.148D-01
 Coeff:     -0.266D-01-0.844D-01 0.315D+00 0.815D+00
 Gap=     0.022 Goal=   None    Shift=    0.000
 RMSDP=1.32D-05 MaxDP=6.30D-04 DE=-4.95D-06 OVMax= 9.56D-04

 Cycle  11  Pass 1  IDiag  1:
 E= -649.177055095975     Delta-E=       -0.000000589955 Rises=F Damp=F
 DIIS: error= 6.88D-06 at cycle  11 NSaved=  11.
 NSaved=11 IEnMin=11 EnMin= -649.177055095975     IErMin=11 ErrMin= 6.88D-06
 ErrMax= 6.88D-06  0.00D+00 EMaxC= 1.00D-01 BMatC= 6.87D-09 BMatP= 8.46D-08
 IDIUse=1 WtCom= 1.00D+00 WtEn= 0.00D+00
 Coeff-Com: -0.198D-03 0.262D-03 0.138D-03-0.298D-03 0.372D-02 0.981D-02
 Coeff-Com:  0.123D-01-0.738D-01-0.120D+00 0.133D+00 0.103D+01
 Coeff:     -0.198D-03 0.262D-03 0.138D-03-0.298D-03 0.372D-02 0.981D-02
 Coeff:      0.123D-01-0.738D-01-0.120D+00 0.133D+00 0.103D+01
 Gap=     0.022 Goal=   None    Shift=    0.000
 RMSDP=7.18D-06 MaxDP=2.88D-04 DE=-5.90D-07 OVMax= 4.82D-04

 Cycle  12  Pass 1  IDiag  1:
 E= -649.177055153677     Delta-E=       -0.000000057702 Rises=F Damp=F
 DIIS: error= 1.12D-06 at cycle  12 NSaved=  12.
 NSaved=12 IEnMin=12 EnMin= -649.177055153677     IErMin=12 ErrMin= 1.12D-06
 ErrMax= 1.12D-06  0.00D+00 EMaxC= 1.00D-01 BMatC= 1.10D-10 BMatP= 6.87D-09
 IDIUse=1 WtCom= 1.00D+00 WtEn= 0.00D+00
 Coeff-Com: -0.539D-04 0.737D-04 0.135D-04-0.162D-03 0.103D-02 0.248D-02
 Coeff-Com:  0.477D-02-0.135D-01-0.306D-01-0.721D-02 0.206D+00 0.837D+00
 Coeff:     -0.539D-04 0.737D-04 0.135D-04-0.162D-03 0.103D-02 0.248D-02
 Coeff:      0.477D-02-0.135D-01-0.306D-01-0.721D-02 0.206D+00 0.837D+00
 Gap=     0.022 Goal=   None    Shift=    0.000
 RMSDP=1.44D-06 MaxDP=3.13D-05 DE=-5.77D-08 OVMax= 1.19D-04

 Cycle  13  Pass 1  IDiag  1:
 E= -649.177055154839     Delta-E=       -0.000000001162 Rises=F Damp=F
 DIIS: error= 5.92D-07 at cycle  13 NSaved=  13.
 NSaved=13 IEnMin=13 EnMin= -649.177055154839     IErMin=13 ErrMin= 5.92D-07
 ErrMax= 5.92D-07  0.00D+00 EMaxC= 1.00D-01 BMatC= 3.86D-11 BMatP= 1.10D-10
 IDIUse=1 WtCom= 1.00D+00 WtEn= 0.00D+00
 Coeff-Com:  0.235D-04-0.306D-04 0.130D-04-0.751D-04-0.842D-05-0.104D-02
 Coeff-Com: -0.387D-03 0.407D-02 0.453D-02-0.310D-01-0.956D-01 0.170D+00
 Coeff-Com:  0.950D+00
 Coeff:      0.235D-04-0.306D-04 0.130D-04-0.751D-04-0.842D-05-0.104D-02
 Coeff:     -0.387D-03 0.407D-02 0.453D-02-0.310D-01-0.956D-01 0.170D+00
 Coeff:      0.950D+00
 Gap=     0.022 Goal=   None    Shift=    0.000
 RMSDP=9.17D-07 MaxDP=2.73D-05 DE=-1.16D-09 OVMax= 6.30D-05

 Cycle  14  Pass 1  IDiag  1:
 E= -649.177055155220     Delta-E=       -0.000000000381 Rises=F Damp=F
 DIIS: error= 3.32D-07 at cycle  14 NSaved=  14.
 NSaved=14 IEnMin=14 EnMin= -649.177055155220     IErMin=14 ErrMin= 3.32D-07
 ErrMax= 3.32D-07  0.00D+00 EMaxC= 1.00D-01 BMatC= 1.06D-11 BMatP= 3.86D-11
 IDIUse=1 WtCom= 1.00D+00 WtEn= 0.00D+00
 Coeff-Com:  0.237D-05-0.283D-05 0.635D-06-0.588D-05-0.385D-04-0.556D-04
 Coeff-Com: -0.707D-04 0.618D-03 0.175D-02 0.451D-02-0.121D-01-0.101D+00
 Coeff-Com:  0.368D-01 0.107D+01
 Coeff:      0.237D-05-0.283D-05 0.635D-06-0.588D-05-0.385D-04-0.556D-04
 Coeff:     -0.707D-04 0.618D-03 0.175D-02 0.451D-02-0.121D-01-0.101D+00
 Coeff:      0.368D-01 0.107D+01
 Gap=     0.022 Goal=   None    Shift=    0.000
 RMSDP=2.11D-07 MaxDP=8.69D-06 DE=-3.81D-10 OVMax= 1.96D-05

 Cycle  15  Pass 1  IDiag  1:
 E= -649.177055155318     Delta-E=       -0.000000000097 Rises=F Damp=F
 DIIS: error= 3.08D-08 at cycle  15 NSaved=  15.
 NSaved=15 IEnMin=15 EnMin= -649.177055155318     IErMin=15 ErrMin= 3.08D-08
 ErrMax= 3.08D-08  0.00D+00 EMaxC= 1.00D-01 BMatC= 1.16D-13 BMatP= 1.06D-11
 IDIUse=1 WtCom= 1.00D+00 WtEn= 0.00D+00
 Coeff-Com: -0.119D-05 0.174D-05 0.262D-06-0.103D-05-0.449D-05 0.719D-04
 Coeff-Com:  0.491D-04-0.174D-03-0.617D-04 0.286D-02 0.423D-02-0.412D-01
 Coeff-Com: -0.423D-01 0.300D+00 0.776D+00
 Coeff:     -0.119D-05 0.174D-05 0.262D-06-0.103D-05-0.449D-05 0.719D-04
 Coeff:      0.491D-04-0.174D-03-0.617D-04 0.286D-02 0.423D-02-0.412D-01
 Coeff:     -0.423D-01 0.300D+00 0.776D+00
 Gap=     0.022 Goal=   None    Shift=    0.000
 RMSDP=3.23D-08 MaxDP=1.02D-06 DE=-9.73D-11 OVMax= 2.68D-06

 Cycle  16  Pass 1  IDiag  1:
 E= -649.177055155315     Delta-E=        0.000000000002 Rises=F Damp=F
 DIIS: error= 1.21D-08 at cycle  16 NSaved=  16.
 NSaved=16 IEnMin=15 EnMin= -649.177055155318     IErMin=16 ErrMin= 1.21D-08
 ErrMax= 1.21D-08  0.00D+00 EMaxC= 1.00D-01 BMatC= 7.47D-15 BMatP= 1.16D-13
 IDIUse=1 WtCom= 1.00D+00 WtEn= 0.00D+00
 Coeff-Com: -0.533D-06 0.731D-06 0.161D-06-0.959D-07 0.108D-05 0.195D-04
 Coeff-Com:  0.317D-04-0.121D-03-0.205D-03 0.241D-03 0.219D-02-0.392D-03
 Coeff-Com: -0.195D-01-0.451D-01 0.169D+00 0.894D+00
 Coeff:     -0.533D-06 0.731D-06 0.161D-06-0.959D-07 0.108D-05 0.195D-04
 Coeff:      0.317D-04-0.121D-03-0.205D-03 0.241D-03 0.219D-02-0.392D-03
 Coeff:     -0.195D-01-0.451D-01 0.169D+00 0.894D+00
 Gap=     0.022 Goal=   None    Shift=    0.000
 RMSDP=1.40D-08 MaxDP=3.13D-07 DE= 2.27D-12 OVMax= 7.16D-07

 Cycle  17  Pass 1  IDiag  1:
 E= -649.177055155312     Delta-E=        0.000000000003 Rises=F Damp=F
 DIIS: error= 2.08D-09 at cycle  17 NSaved=  17.
 NSaved=17 IEnMin=15 EnMin= -649.177055155318     IErMin=17 ErrMin= 2.08D-09
 ErrMax= 2.08D-09  0.00D+00 EMaxC= 1.00D-01 BMatC= 5.16D-16 BMatP= 7.47D-15
 IDIUse=1 WtCom= 1.00D+00 WtEn= 0.00D+00
 Large coefficients: NSaved= 17 BigCof=    0.00 CofMax=   10.00 Det=-1.23D-15
 Inversion failed.  Reducing to 16 matrices.
 Large coefficients: NSaved= 16 BigCof=    0.00 CofMax=   10.00 Det=-1.25D-15
 Inversion failed.  Reducing to 15 matrices.
 Coeff-Com: -0.389D-08-0.952D-08 0.799D-06 0.618D-06-0.166D-05-0.396D-05
 Coeff-Com: -0.225D-04-0.570D-04 0.101D-03 0.998D-03 0.246D-02-0.101D-01
 Coeff-Com: -0.274D-01 0.329D-01 0.100D+01
 Coeff:     -0.389D-08-0.952D-08 0.799D-06 0.618D-06-0.166D-05-0.396D-05
 Coeff:     -0.225D-04-0.570D-04 0.101D-03 0.998D-03 0.246D-02-0.101D-01
 Coeff:     -0.274D-01 0.329D-01 0.100D+01
 Gap=     0.022 Goal=   None    Shift=    0.000
 RMSDP=3.92D-09 MaxDP=1.19D-07 DE= 2.96D-12 OVMax= 9.65D-08

 SCF Done:  E(RB3LYP) =  -649.177055155     A.U. after   17 cycles
            NFock= 17  Conv=0.39D-08     -V/T= 2.0030
 KE= 6.472608862287D+02 PE=-1.738182083736D+03 EE= 3.521760637844D+02
 Leave Link  502 at Fri Oct  6 22:01:56 2023, MaxMem=  1610612736 cpu:             187.0 elap:             117.1
 (Enter /home/sekinelabo/g16/l601.exe)
 Copying SCF densities to generalized density rwf, IOpCl= 0 IROHF=0.

 **********************************************************************

            Population analysis using the SCF Density.

 **********************************************************************

 Orbital symmetries:
       Occupied  (A) (A) (A) (A) (A) (A) (A) (A) (A) (A) (A) (A)
                 (A) (A) (A) (A) (A) (A) (A) (A) (A) (A)
       Virtual   (A) (A) (A) (A) (A) (A) (A) (A) (A) (A) (A) (A)
                 (A) (A) (A) (A) (A) (A) (A) (A) (A) (A) (A) (A)
                 (A) (A) (A) (A) (A) (A) (A) (A) (A) (A) (A) (A)
                 (A) (A) (A) (A) (A) (A) (A) (A) (A) (A) (A) (A)
                 (A) (A) (A) (A) (A) (A) (A) (A) (A) (A) (A) (A)
                 (A) (A) (A) (A) (A) (A) (A) (A) (A) (A) (A) (A)
                 (A) (A) (A) (A) (A) (A) (A) (A) (A) (A) (A) (A)
                 (A) (A) (A) (A) (A) (A) (A) (A) (A) (A) (A) (A)
                 (A) (A)
 The electronic state is 1-A.
 Alpha  occ. eigenvalues --  -38.45865 -38.45718 -38.45145 -38.43784  -2.21585
 Alpha  occ. eigenvalues --   -2.21457  -2.20916  -2.19492  -1.15287  -1.15230
 Alpha  occ. eigenvalues --   -1.15216  -1.15143  -1.15112  -1.15080  -1.14601
 Alpha  occ. eigenvalues --   -1.14568  -1.14541  -1.13183  -1.13171  -1.13118
 Alpha  occ. eigenvalues --   -0.15047  -0.10017
 Alpha virt. eigenvalues --   -0.07853  -0.06340  -0.02950  -0.02518  -0.01761
 Alpha virt. eigenvalues --   -0.01486  -0.01339  -0.00591  -0.00071  -0.00025
 Alpha virt. eigenvalues --    0.00318   0.00713   0.01187   0.01246   0.01403
 Alpha virt. eigenvalues --    0.01571   0.01641   0.01673   0.01731   0.01956
 Alpha virt. eigenvalues --    0.02054   0.02428   0.02487   0.02593   0.03132
 Alpha virt. eigenvalues --    0.03292   0.03406   0.03701   0.04162   0.04306
 Alpha virt. eigenvalues --    0.05712   0.06667   0.06959   0.07487   0.07769
 Alpha virt. eigenvalues --    0.08425   0.08701   0.09565   0.09833   0.10015
 Alpha virt. eigenvalues --    0.10733   0.11398   0.11885   0.12518   0.12600
 Alpha virt. eigenvalues --    0.13819   0.27742   0.29505   0.29798   0.30163
 Alpha virt. eigenvalues --    0.31391   0.32994   0.33281   0.34644   0.35810
 Alpha virt. eigenvalues --    0.36097   0.36502   0.36883   0.37220   0.38880
 Alpha virt. eigenvalues --    0.40047   0.41062   0.41775   0.42544   0.43053
 Alpha virt. eigenvalues --    0.43352   0.44270   0.44540   0.44996   0.45873
 Alpha virt. eigenvalues --    0.45957   0.47584   0.48550   0.49152   0.50975
 Alpha virt. eigenvalues --    0.52743   0.55578   0.58578   2.01295   2.04363
 Alpha virt. eigenvalues --    2.07902   2.12374   4.42291   4.43010   4.43399
 Alpha virt. eigenvalues --    4.43707   4.44252   4.44339   4.45746   4.45856
 Alpha virt. eigenvalues --    4.47503   4.47638   4.48532   4.50296  96.20540
 Alpha virt. eigenvalues --   96.23938  96.28027  96.33672
          Condensed to atoms (all electrons):
               1          2          3          4
     1  Na  10.850135   0.478669  -0.290042  -0.183511
     2  Na   0.478669  10.832472  -0.251770  -0.117229
     3  Na  -0.290042  -0.251770  11.247276   0.405648
     4  Na  -0.183511  -0.117229   0.405648  10.986588
 Mulliken charges:
               1
     1  Na   0.144749
     2  Na   0.057859
     3  Na  -0.111112
     4  Na  -0.091496
 Sum of Mulliken charges =  -0.00000
 Mulliken charges with hydrogens summed into heavy atoms:
               1
     1  Na   0.144749
     2  Na   0.057859
     3  Na  -0.111112
     4  Na  -0.091496
 Electronic spatial extent (au):  <R**2>=           1266.8998
 Charge=             -0.0000 electrons
 Dipole moment (field-independent basis, Debye):
    X=              2.0534    Y=             -0.0995    Z=             -0.2827  Tot=              2.0752
 Quadrupole moment (field-independent basis, Debye-Ang):
   XX=            -54.4798   YY=            -35.7638   ZZ=            -35.7290
   XY=              9.5529   XZ=              0.2195   YZ=              2.6780
 Traceless Quadrupole moment (field-independent basis, Debye-Ang):
   XX=            -12.4889   YY=              6.2270   ZZ=              6.2619
   XY=              9.5529   XZ=              0.2195   YZ=              2.6780
 Octapole moment (field-independent basis, Debye-Ang**2):
  XXX=             22.4492  YYY=             -0.8931  ZZZ=              3.1644  XYY=             14.0620
  XXY=              5.6970  XXZ=             10.0087  XZZ=             20.6237  YZZ=              2.1489
  YYZ=            -17.1653  XYZ=              4.2443
 Hexadecapole moment (field-independent basis, Debye-Ang**3):
 XXXX=          -1514.1353 YYYY=           -681.4579 ZZZZ=           -385.2999 XXXY=             91.2021
 XXXZ=              4.1444 YYYX=             71.4571 YYYZ=             15.9619 ZZZX=             14.2848
 ZZZY=             21.1475 XXYY=           -385.2048 XXZZ=           -299.3923 YYZZ=           -171.7700
 XXYZ=             15.8171 YYXZ=            -12.1645 ZZXY=             25.2179
 N-N= 8.956807856781D+01 E-N=-1.738182083632D+03  KE= 6.472608862287D+02
 No NMR shielding tensors so no spin-rotation constants.
 Leave Link  601 at Fri Oct  6 22:02:02 2023, MaxMem=  1610612736 cpu:               8.3 elap:               5.2
 (Enter /home/sekinelabo/g16/l701.exe)
 ... and contract with generalized density number  0.
 Compute integral first derivatives.
 Leave Link  701 at Fri Oct  6 22:02:06 2023, MaxMem=  1610612736 cpu:               7.1 elap:               4.4
 (Enter /home/sekinelabo/g16/l702.exe)
 L702 exits ... SP integral derivatives will be done elsewhere.
 Leave Link  702 at Fri Oct  6 22:02:06 2023, MaxMem=  1610612736 cpu:               0.6 elap:               0.4
 (Enter /home/sekinelabo/g16/l703.exe)
 Integral derivatives from FoFJK, PRISM(SPDF).
 Compute integral first derivatives, UseDBF=F ICtDFT=           0.
 Calling FoFJK, ICntrl=      2127 FMM=F ISym2X=0 I1Cent= 0 IOpClX= 0 NMat=1 NMatS=1 NMatT=0.
 FoFJK:  IHMeth= 1 ICntrl=    2127 DoSepK=F KAlg= 0 I1Cent=           0 FoldK=F
 IRaf=         0 NMat=       1 IRICut=       1 DoRegI=T DoRafI=F ISym2E= 0 IDoP0=0 IntGTp=1.
 FoFCou: FMM=F IPFlag=           0 FMFlag=      100000 FMFlg1=         800
         NFxFlg=           0 DoJE=F BraDBF=F KetDBF=F FulRan=T
         wScrn=  0.000000 ICntrl=      2127 IOpCl=  0 I1Cent=           0 NGrid=           0
         NMat0=    1 NMatS0=      1 NMatT0=    0 NMatD0=    1 NMtDS0=    0 NMtDT0=    0
 Symmetry not used in FoFCou.
 Leave Link  703 at Fri Oct  6 22:02:15 2023, MaxMem=  1610612736 cpu:              13.5 elap:               8.2
 (Enter /home/sekinelabo/g16/l716.exe)
 Dipole        = 8.07870988D-01-3.91496272D-02-1.11227736D-01
 ***** Axes restored to original set *****
 -------------------------------------------------------------------
 Center     Atomic                   Forces (Hartrees/Bohr)
 Number     Number              X              Y              Z
 -------------------------------------------------------------------
      1       11          -0.006569385   -0.000784097   -0.000769504
      2       11           0.004972794    0.000562964   -0.002635478
      3       11          -0.002831642   -0.005133125   -0.001034366
      4       11           0.004428233    0.005354258    0.004439348
 -------------------------------------------------------------------
 Cartesian Forces:  Max     0.006569385 RMS     0.003870587
 Z-matrix is all fixed cartesians, so copy forces.
 Force constants in Cartesian coordinates: 
                1             2             3             4             5 
      1  0.180839D-01
      2 -0.542355D-03  0.440759D-02
      3 -0.377417D-02 -0.240113D-02  0.222729D-02
      4 -0.186381D-01  0.504596D-02  0.132074D-02  0.258634D-01
      5  0.408858D-03 -0.332269D-02  0.181011D-02 -0.878948D-02  0.145157D-01
      6  0.397578D-02  0.762703D-03 -0.133473D-02 -0.809343D-03 -0.632585D-02
      7  0.000000D+00  0.000000D+00  0.000000D+00  0.000000D+00  0.000000D+00
      8  0.000000D+00  0.000000D+00  0.000000D+00  0.000000D+00  0.000000D+00
      9  0.000000D+00  0.000000D+00  0.000000D+00  0.000000D+00  0.000000D+00
     10  0.554169D-03 -0.450360D-02  0.245343D-02 -0.722531D-02  0.838062D-02
     11  0.133497D-03 -0.108490D-02  0.591022D-03  0.374352D-02 -0.111930D-01
     12 -0.201609D-03  0.163843D-02 -0.892568D-03 -0.511394D-03  0.451574D-02
                6             7             8             9            10 
      6  0.380477D-02
      7  0.000000D+00  0.100000D+01
      8  0.000000D+00  0.000000D+00  0.100000D+01
      9  0.000000D+00  0.000000D+00  0.000000D+00  0.100000D+01
     10 -0.316644D-02  0.000000D+00  0.000000D+00  0.000000D+00  0.667115D-02
     11  0.556314D-02  0.000000D+00  0.000000D+00  0.000000D+00 -0.387702D-02
     12 -0.247004D-02  0.000000D+00  0.000000D+00  0.000000D+00  0.713003D-03
               11            12 
     11  0.122779D-01
     12 -0.615417D-02  0.336261D-02
 Leave Link  716 at Fri Oct  6 22:02:15 2023, MaxMem=  1610612736 cpu:               0.7 elap:               0.5
 (Enter /home/sekinelabo/g16/l103.exe)

 GradGradGradGradGradGradGradGradGradGradGradGradGradGradGradGradGradGrad
 Berny optimization.
 Search for a local minimum.
 Step number   1 out of a maximum of    2
 All quantities printed in internal units (Hartrees-Bohrs-Radians)
 Second derivative matrix not updated -- first step.
 The second derivative matrix:
                          X1        Y1        Z1        X2        Y2
           X1           0.01808
           Y1          -0.00054   0.00441
           Z1          -0.00377  -0.00240   0.00223
           X2          -0.01864   0.00505   0.00132   0.02586
           Y2           0.00041  -0.00332   0.00181  -0.00879   0.01452
           Z2           0.00398   0.00076  -0.00133  -0.00081  -0.00633
           X3           0.00000   0.00000   0.00000   0.00000   0.00000
           Y3           0.00000   0.00000   0.00000   0.00000   0.00000
           Z3           0.00000   0.00000   0.00000   0.00000   0.00000
           X4           0.00055  -0.00450   0.00245  -0.00723   0.00838
           Y4           0.00013  -0.00108   0.00059   0.00374  -0.01119
           Z4          -0.00020   0.00164  -0.00089  -0.00051   0.00452
                          Z2        X3        Y3        Z3        X4
           Z2           0.00380
           X3           0.00000   1.00000
           Y3           0.00000  -0.00000   1.00000
           Z3           0.00000   0.00000   0.00000   1.00000
           X4          -0.00317   0.00000   0.00000   0.00000   0.00667
           Y4           0.00556   0.00000   0.00000   0.00000  -0.00388
           Z4          -0.00247   0.00000   0.00000   0.00000   0.00071
                          Y4        Z4
           Y4           0.01228
           Z4          -0.00615   0.00336
 ITU=  0
     Eigenvalues ---    0.01279   0.03104   0.04738   0.19023   0.28957
     Eigenvalues ---    0.75000
 Quadratic step=3.800D-01 exceeds max=3.000D-01 adjusted using Lamda=-4.372D-03.
 Angle between NR and scaled steps=   4.99 degrees.
 Angle between quadratic step and forces=  48.35 degrees.
 Linear search not attempted -- first point.
 B after Tr=    -0.000000   -0.000000   -0.000000
         Rot=    1.000000    0.000000   -0.000000    0.000000 Ang=   0.00 deg.
 Variable       Old X    -DE/DX   Delta X   Delta X   Delta X     New X
                                 (Linear)    (Quad)   (Total)
    X1        0.00000  -0.00657   0.00000  -0.18799  -0.18799  -0.18799
    Y1        0.00000  -0.00078   0.00000  -0.11098  -0.11098  -0.11098
    Z1        0.00000  -0.00077   0.00000   0.09691   0.09691   0.09691
    X2       -6.41373   0.00497   0.00000   0.08513   0.08513  -6.32860
    Y2        0.00000   0.00056   0.00000   0.04089   0.04089   0.04089
    Z2        1.44870  -0.00264   0.00000  -0.05328  -0.05328   1.39542
    X3        0.00000  -0.00283   0.00000  -0.00517  -0.00517  -0.00517
    Y3       -0.00000  -0.00513   0.00000  -0.01747  -0.01747  -0.01747
    Z3        9.45454  -0.00103   0.00000   0.00196   0.00196   9.45650
    X4       -4.04507   0.00443   0.00000   0.10803   0.10803  -3.93704
    Y4       -5.70640   0.00535   0.00000   0.08757   0.08757  -5.61883
    Z4        4.18097   0.00444   0.00000  -0.04559  -0.04559   4.13538
         Item               Value     Threshold  Converged?
 Maximum Force            0.006569     0.000450     NO 
 RMS     Force            0.003871     0.000300     NO 
 Maximum Displacement     0.187994     0.001800     NO 
 RMS     Displacement     0.086872     0.001200     NO 
 Predicted change in Energy=-1.538665D-03
 GradGradGradGradGradGradGradGradGradGradGradGradGradGradGradGradGradGrad

 Leave Link  103 at Fri Oct  6 22:02:17 2023, MaxMem=  1610612736 cpu:               3.7 elap:               2.3
 (Enter /home/sekinelabo/g16/l9999.exe)
 1\1\GINC-SEKINELABO-XA7R-R37\Force\RB3LYP\6-311+G(d)\Na4\SEKINELABO\06
 -Oct-2023\0\\#p B3LYP/6-311+g(d) force\\\0,1\Na,0.,0.,0.\Na,-3.3939996
 846,0.,0.7666195309\Na,0.,0.,5.0031276395\Na,-2.1405606219,-3.01969698
 42,2.2124723693\\Version=ES64L-G16RevB.01\State=1-A\HF=-649.1770552\RM
 SD=3.921e-09\RMSF=3.871e-03\Dipole=-0.2536941,-0.0838603,-0.7714704\Qu
 adrupole=7.5171342,3.0522075,-10.5693417,2.1620294,-3.2377059,3.895087
 1\PG=C01 [X(Na4)]\\@


 Life may have no meaning.  Or even worse, it may have a
 meaning of which I disapprove.
                                 -- Ashleigh Brilliant
 Job cpu time:       0 days  0 hours  4 minutes 23.4 seconds.
 Elapsed time:       0 days  0 hours  2 minutes 44.2 seconds.
 File lengths (MBytes):  RWF=     10 Int=      0 D2E=      0 Chk=      2 Scr=      1
 Normal termination of Gaussian 16 at Fri Oct  6 22:02:18 2023.
 Initial command:
 /home/sekinelabo/g16/l1.exe "/home/sekinelabo/g16temp/Gau-708792.inp" -scrdir="/home/sekinelabo/g16temp/"
 Entering Link 1 = /home/sekinelabo/g16/l1.exe PID=    712214.
  
 Copyright (c) 1988-2017, Gaussian, Inc.  All Rights Reserved.
  
 This is part of the Gaussian(R) 16 program.  It is based on
 the Gaussian(R) 09 system (copyright 2009, Gaussian, Inc.),
 the Gaussian(R) 03 system (copyright 2003, Gaussian, Inc.),
 the Gaussian(R) 98 system (copyright 1998, Gaussian, Inc.),
 the Gaussian(R) 94 system (copyright 1995, Gaussian, Inc.),
 the Gaussian 92(TM) system (copyright 1992, Gaussian, Inc.),
 the Gaussian 90(TM) system (copyright 1990, Gaussian, Inc.),
 the Gaussian 88(TM) system (copyright 1988, Gaussian, Inc.),
 the Gaussian 86(TM) system (copyright 1986, Carnegie Mellon
 University), and the Gaussian 82(TM) system (copyright 1983,
 Carnegie Mellon University). Gaussian is a federally registered
 trademark of Gaussian, Inc.
  
 This software contains proprietary and confidential information,
 including trade secrets, belonging to Gaussian, Inc.
  
 This software is provided under written license and may be
 used, copied, transmitted, or stored only in accord with that
 written license.
  
 The following legend is applicable only to US Government
 contracts under FAR:
  
                    RESTRICTED RIGHTS LEGEND
  
 Use, reproduction and disclosure by the US Government is
 subject to restrictions as set forth in subparagraphs (a)
 and (c) of the Commercial Computer Software - Restricted
 Rights clause in FAR 52.227-19.
  
 Gaussian, Inc.
 340 Quinnipiac St., Bldg. 40, Wallingford CT 06492
  
  
 ---------------------------------------------------------------
 Warning -- This program may not be used in any manner that
 competes with the business of Gaussian, Inc. or will provide
 assistance to any competitor of Gaussian, Inc.  The licensee
 of this program is prohibited from giving any competitor of
 Gaussian, Inc. access to this program.  By using this program,
 the user acknowledges that Gaussian, Inc. is engaged in the
 business of creating and licensing software in the field of
 computational chemistry and represents and warrants to the
 licensee that it is not a competitor of Gaussian, Inc. and that
 it will not use this program in any manner prohibited above.
 ---------------------------------------------------------------
  

 Cite this work as:
 Gaussian 16, Revision B.01,
 M. J. Frisch, G. W. Trucks, H. B. Schlegel, G. E. Scuseria, 
 M. A. Robb, J. R. Cheeseman, G. Scalmani, V. Barone, 
 G. A. Petersson, H. Nakatsuji, X. Li, M. Caricato, A. V. Marenich, 
 J. Bloino, B. G. Janesko, R. Gomperts, B. Mennucci, H. P. Hratchian, 
 J. V. Ortiz, A. F. Izmaylov, J. L. Sonnenberg, D. Williams-Young, 
 F. Ding, F. Lipparini, F. Egidi, J. Goings, B. Peng, A. Petrone, 
 T. Henderson, D. Ranasinghe, V. G. Zakrzewski, J. Gao, N. Rega, 
 G. Zheng, W. Liang, M. Hada, M. Ehara, K. Toyota, R. Fukuda, 
 J. Hasegawa, M. Ishida, T. Nakajima, Y. Honda, O. Kitao, H. Nakai, 
 T. Vreven, K. Throssell, J. A. Montgomery, Jr., J. E. Peralta, 
 F. Ogliaro, M. J. Bearpark, J. J. Heyd, E. N. Brothers, K. N. Kudin, 
 V. N. Staroverov, T. A. Keith, R. Kobayashi, J. Normand, 
 K. Raghavachari, A. P. Rendell, J. C. Burant, S. S. Iyengar, 
 J. Tomasi, M. Cossi, J. M. Millam, M. Klene, C. Adamo, R. Cammi, 
 J. W. Ochterski, R. L. Martin, K. Morokuma, O. Farkas, 
 J. B. Foresman, and D. J. Fox, Gaussian, Inc., Wallingford CT, 2016.
 
 ******************************************
 Gaussian 16:  ES64L-G16RevB.01 20-Dec-2017
                 6-Oct-2023 
 ******************************************
 %NProcShared=16
 Will use up to   16 processors via shared memory.
 %mem=12GB
 %Chk=checkpoint.chk
 -------------------------
 #p B3LYP/6-311+g(d) force
 -------------------------
 1/10=7,30=1,38=1/1,3;
 2/12=2,17=6,18=5,40=1/2;
 3/5=4,6=6,7=11,11=2,25=1,30=1,71=1,74=-5/1,2,3;
 4//1;
 5/5=2,38=5/2;
 6/7=2,8=2,9=2,10=2,28=1/1;
 7/29=1/1,2,3,16;
 1/10=7,30=1/3;
 99//99;
 Leave Link    1 at Fri Oct  6 22:02:19 2023, MaxMem=  1610612736 cpu:               0.5 elap:               0.3
 (Enter /home/sekinelabo/g16/l101.exe)


 Symbolic Z-matrix:
 Charge =  0 Multiplicity = 1
 Na                    0.        0.        0. 
 Na                   -0.60685   0.       -3.22102 
 Na                    0.        0.        3.06887 
 Na                    2.48507  -1.38966   7.48776 
 
 ITRead=  0  0  0  0
 MicOpt= -1 -1 -1 -1
 NAtoms=      4 NQM=        4 NQMF=       0 NMMI=      0 NMMIF=      0
                NMic=       0 NMicF=      0.
                    Isotopes and Nuclear Properties:
 (Nuclear quadrupole moments (NQMom) in fm**2, nuclear magnetic moments (NMagM)
  in nuclear magnetons)

  Atom         1           2           3           4
 IAtWgt=          23          23          23          23
 AtmWgt=  22.9897697  22.9897697  22.9897697  22.9897697
 NucSpn=           3           3           3           3
 AtZEff=  -0.0000000  -0.0000000  -0.0000000  -0.0000000
 NQMom=   10.4000000  10.4000000  10.4000000  10.4000000
 NMagM=    2.2175200   2.2175200   2.2175200   2.2175200
 AtZNuc=  11.0000000  11.0000000  11.0000000  11.0000000
 Leave Link  101 at Fri Oct  6 22:02:20 2023, MaxMem=  1610612736 cpu:               1.9 elap:               1.2
 (Enter /home/sekinelabo/g16/l103.exe)

 GradGradGradGradGradGradGradGradGradGradGradGradGradGradGradGradGradGrad
 Berny optimization.
 Initialization pass.
 Trust Radius=3.00D-01 FncErr=1.00D-07 GrdErr=1.00D-07 EigMax=2.50D+02 EigMin=1.00D-04
 Number of steps in this run=      2 maximum allowed number of steps=      2.
 GradGradGradGradGradGradGradGradGradGradGradGradGradGradGradGradGradGrad

 Leave Link  103 at Fri Oct  6 22:02:20 2023, MaxMem=  1610612736 cpu:               0.6 elap:               0.4
 (Enter /home/sekinelabo/g16/l202.exe)
                          Input orientation:                          
 ---------------------------------------------------------------------
 Center     Atomic      Atomic             Coordinates (Angstroms)
 Number     Number       Type             X           Y           Z
 ---------------------------------------------------------------------
      1         11           0        0.000000    0.000000    0.000000
      2         11           0       -0.606852    0.000000   -3.221020
      3         11           0        0.000000    0.000000    3.068870
      4         11           0        2.485071   -1.389656    7.487756
 ---------------------------------------------------------------------
                    Distance matrix (angstroms):
                    1          2          3          4
     1  Na   0.000000
     2  Na   3.277688   0.000000
     3  Na   3.068870   6.319097   0.000000
     4  Na   8.010818  11.232497   5.256736   0.000000
 Stoichiometry    Na4
 Framework group  C1[X(Na4)]
 Deg. of freedom     6
 Full point group                 C1      NOp   1
 Largest Abelian subgroup         C1      NOp   1
 Largest concise Abelian subgroup C1      NOp   1
                         Standard orientation:                         
 ---------------------------------------------------------------------
 Center     Atomic      Atomic             Coordinates (Angstroms)
 Number     Number       Type             X           Y           Z
 ---------------------------------------------------------------------
      1         11           0        1.921045    0.027042    0.115018
      2         11           0        5.161460   -0.432235   -0.063902
      3         11           0       -1.011871    0.916982   -0.039818
      4         11           0       -6.070633   -0.511789   -0.011297
 ---------------------------------------------------------------------
 Rotational constants (GHZ):          16.7888347           0.3222026           0.3163086
 Leave Link  202 at Fri Oct  6 22:02:21 2023, MaxMem=  1610612736 cpu:               1.2 elap:               0.8
 (Enter /home/sekinelabo/g16/l301.exe)
 Standard basis: 6-311+G(d) (5D, 7F)
 Ernie: Thresh=  0.10000D-02 Tol=  0.10000D-05 Strict=F.
 There are   124 symmetry adapted cartesian basis functions of A   symmetry.
 There are   120 symmetry adapted basis functions of A   symmetry.
   120 basis functions,   200 primitive gaussians,   124 cartesian basis functions
    22 alpha electrons       22 beta electrons
       nuclear repulsion energy        76.4067027558 Hartrees.
 IExCor=  402 DFT=T Ex+Corr=B3LYP ExCW=0 ScaHFX=  0.200000
 ScaDFX=  0.800000  0.720000  1.000000  0.810000 ScalE2=  1.000000  1.000000
 IRadAn=      5 IRanWt=     -1 IRanGd=            0 ICorTp=0 IEmpDi=  4
 NAtoms=    4 NActive=    4 NUniq=    4 SFac= 1.00D+00 NAtFMM=   60 NAOKFM=F Big=F
 Integral buffers will be    131072 words long.
 Raffenetti 2 integral format.
 Two-electron integral symmetry is turned on.
 Leave Link  301 at Fri Oct  6 22:02:21 2023, MaxMem=  1610612736 cpu:               0.7 elap:               0.5
 (Enter /home/sekinelabo/g16/l302.exe)
 NPDir=0 NMtPBC=     1 NCelOv=     1 NCel=       1 NClECP=     1 NCelD=      1
         NCelK=      1 NCelE2=     1 NClLst=     1 CellRange=     0.0.
 One-electron integrals computed using PRISM.
 One-electron integral symmetry used in STVInt
 NBasis=   120 RedAO= T EigKep=  4.46D-06  NBF=   120
 NBsUse=   120 1.00D-06 EigRej= -1.00D+00 NBFU=   120
 Precomputing XC quadrature grid using
 IXCGrd= 4 IRadAn=           5 IRanWt=          -1 IRanGd=           0 AccXCQ= 0.00D+00.
 Generated NRdTot=       0 NPtTot=           0 NUsed=           0 NTot=          32
 NSgBfM=   113   111   111   111   113 MxSgAt=     4 MxSgA2=     4.
 Leave Link  302 at Fri Oct  6 22:02:35 2023, MaxMem=  1610612736 cpu:              21.3 elap:              13.4
 (Enter /home/sekinelabo/g16/l303.exe)
 DipDrv:  MaxL=1.
 Leave Link  303 at Fri Oct  6 22:02:37 2023, MaxMem=  1610612736 cpu:               3.1 elap:               1.9
 (Enter /home/sekinelabo/g16/l401.exe)
 ExpMin= 7.60D-03 ExpMax= 3.62D+04 ExpMxC= 1.21D+03 IAcc=3 IRadAn=         5 AccDes= 0.00D+00
 Harris functional with IExCor=  402 and IRadAn=       5 diagonalized for initial guess.
 HarFok:  IExCor=  402 AccDes= 0.00D+00 IRadAn=         5 IDoV= 1 UseB2=F ITyADJ=14
 ICtDFT=  3500011 ScaDFX=  1.000000  1.000000  1.000000  1.000000
 FoFCou: FMM=F IPFlag=           0 FMFlag=      100000 FMFlg1=           0
         NFxFlg=           0 DoJE=T BraDBF=F KetDBF=T FulRan=T
         wScrn=  0.000000 ICntrl=       500 IOpCl=  0 I1Cent=   200000004 NGrid=           0
         NMat0=    1 NMatS0=      1 NMatT0=    0 NMatD0=    1 NMtDS0=    0 NMtDT0=    0
 Petite list used in FoFCou.
 Harris En= -649.055746914914    
 JPrj=0 DoOrth=F DoCkMO=F.
 Leave Link  401 at Fri Oct  6 22:02:45 2023, MaxMem=  1610612736 cpu:              14.2 elap:               8.7
 (Enter /home/sekinelabo/g16/l502.exe)
 Keep R1 ints in memory in canonical form, NReq=41581762.
 FoFCou: FMM=F IPFlag=           0 FMFlag=           0 FMFlg1=           0
         NFxFlg=           0 DoJE=F BraDBF=F KetDBF=F FulRan=T
         wScrn=  0.000000 ICntrl=       600 IOpCl=  0 I1Cent=           0 NGrid=           0
         NMat0=    1 NMatS0=   7260 NMatT0=    0 NMatD0=    1 NMtDS0=    0 NMtDT0=    0
 Symmetry not used in FoFCou.
 Two-electron integral symmetry not used.
 Closed shell SCF:
 Using DIIS extrapolation, IDIIS=  1040.
 NGot=  1610612736 LenX=  1584221380 LenY=  1584205563
 Requested convergence on RMS density matrix=1.00D-08 within 128 cycles.
 Requested convergence on MAX density matrix=1.00D-06.
 Requested convergence on             energy=1.00D-06.
 No special actions if energy rises.

 Cycle   1  Pass 1  IDiag  1:
 E= -649.133984703242    
 DIIS: error= 1.44D-02 at cycle   1 NSaved=   1.
 NSaved= 1 IEnMin= 1 EnMin= -649.133984703242     IErMin= 1 ErrMin= 1.44D-02
 ErrMax= 1.44D-02  0.00D+00 EMaxC= 1.00D-01 BMatC= 2.91D-02 BMatP= 2.91D-02
 IDIUse=3 WtCom= 8.56D-01 WtEn= 1.44D-01
 Coeff-Com:  0.100D+01
 Coeff-En:   0.100D+01
 Coeff:      0.100D+01
 Gap=    -0.028 Goal=   None    Shift=    0.000
 GapD=   -0.028 DampG=0.250 DampE=0.500 DampFc=0.2500 IDamp=-1.
 Damping current iteration by 2.50D-01
 RMSDP=4.55D-02 MaxDP=1.84D+00              OVMax= 8.06D-01

 Cycle   2  Pass 1  IDiag  1:
 E= -649.149885230806     Delta-E=       -0.015900527564 Rises=F Damp=T
 DIIS: error= 9.97D-03 at cycle   2 NSaved=   2.
 NSaved= 2 IEnMin= 2 EnMin= -649.149885230806     IErMin= 2 ErrMin= 9.97D-03
 ErrMax= 9.97D-03  0.00D+00 EMaxC= 1.00D-01 BMatC= 1.02D-02 BMatP= 2.91D-02
 IDIUse=3 WtCom= 9.00D-01 WtEn= 9.97D-02
 Coeff-Com: -0.752D+00 0.175D+01
 Coeff-En:   0.199D+00 0.801D+00
 Coeff:     -0.658D+00 0.166D+01
 Gap=     0.018 Goal=   None    Shift=    0.000
 RMSDP=1.47D-02 MaxDP=4.46D-01 DE=-1.59D-02 OVMax= 7.84D-01

 Cycle   3  Pass 1  IDiag  1:
 E= -649.025209308772     Delta-E=        0.124675922034 Rises=F Damp=F
 DIIS: error= 1.32D-02 at cycle   3 NSaved=   3.
 NSaved= 3 IEnMin= 2 EnMin= -649.149885230806     IErMin= 2 ErrMin= 9.97D-03
 ErrMax= 1.32D-02  0.00D+00 EMaxC= 1.00D-01 BMatC= 1.31D-02 BMatP= 1.02D-02
 IDIUse=2 WtCom= 0.00D+00 WtEn= 1.00D+00
 Rare condition: small coef for last iteration:  0.000D+00
 Coeff-En:   0.180D+00 0.808D+00 0.119D-01
 Coeff:      0.180D+00 0.808D+00 0.119D-01
 Gap=     0.011 Goal=   None    Shift=    0.000
 RMSDP=1.92D-02 MaxDP=5.37D-01 DE= 1.25D-01 OVMax= 8.21D-01

 Cycle   4  Pass 1  IDiag  1:
 E= -649.122969081882     Delta-E=       -0.097759773110 Rises=F Damp=F
 DIIS: error= 1.15D-02 at cycle   4 NSaved=   4.
 NSaved= 4 IEnMin= 2 EnMin= -649.149885230806     IErMin= 2 ErrMin= 9.97D-03
 ErrMax= 1.15D-02  0.00D+00 EMaxC= 1.00D-01 BMatC= 1.08D-02 BMatP= 1.02D-02
 IDIUse=3 WtCom= 8.85D-01 WtEn= 1.15D-01
 EnCoef did   100 forward-backward iterations
 Coeff-Com: -0.270D+00 0.774D+00 0.289D+00 0.207D+00
 Coeff-En:   0.530D+00 0.616D-02 0.372D-02 0.460D+00
 Coeff:     -0.178D+00 0.686D+00 0.256D+00 0.236D+00
 Gap=     0.015 Goal=   None    Shift=    0.000
 RMSDP=8.13D-03 MaxDP=2.50D-01 DE=-9.78D-02 OVMax= 3.02D-01

 Cycle   5  Pass 1  IDiag  1:
 E= -649.161146600363     Delta-E=       -0.038177518481 Rises=F Damp=F
 DIIS: error= 9.90D-03 at cycle   5 NSaved=   5.
 NSaved= 5 IEnMin= 5 EnMin= -649.161146600363     IErMin= 5 ErrMin= 9.90D-03
 ErrMax= 9.90D-03  0.00D+00 EMaxC= 1.00D-01 BMatC= 2.27D-03 BMatP= 1.02D-02
 IDIUse=3 WtCom= 9.01D-01 WtEn= 9.90D-02
 EnCoef did   100 forward-backward iterations
 Coeff-Com:  0.619D+00-0.767D+00 0.642D-01 0.320D+00 0.763D+00
 Coeff-En:   0.342D+00 0.000D+00 0.241D-02 0.775D-01 0.578D+00
 Coeff:      0.591D+00-0.691D+00 0.580D-01 0.296D+00 0.745D+00
 Gap=     0.021 Goal=   None    Shift=    0.000
 RMSDP=8.92D-03 MaxDP=2.93D-01 DE=-3.82D-02 OVMax= 3.93D-01

 Cycle   6  Pass 1  IDiag  1:
 E= -649.160523977312     Delta-E=        0.000622623051 Rises=F Damp=F
 DIIS: error= 8.22D-03 at cycle   6 NSaved=   6.
 NSaved= 6 IEnMin= 5 EnMin= -649.161146600363     IErMin= 6 ErrMin= 8.22D-03
 ErrMax= 8.22D-03  0.00D+00 EMaxC= 1.00D-01 BMatC= 1.87D-03 BMatP= 2.27D-03
 IDIUse=3 WtCom= 9.18D-01 WtEn= 8.22D-02
 EnCoef did     9 forward-backward iterations
 Coeff-Com:  0.341D+00-0.422D+00-0.517D-01 0.230D+00 0.480D+00 0.423D+00
 Coeff-En:   0.000D+00 0.000D+00 0.000D+00 0.685D-01 0.422D+00 0.510D+00
 Coeff:      0.313D+00-0.387D+00-0.474D-01 0.217D+00 0.475D+00 0.430D+00
 Gap=     0.023 Goal=   None    Shift=    0.000
 RMSDP=2.74D-03 MaxDP=9.22D-02 DE= 6.23D-04 OVMax= 1.91D-01

 Cycle   7  Pass 1  IDiag  1:
 E= -649.178172717319     Delta-E=       -0.017648740007 Rises=F Damp=F
 DIIS: error= 2.26D-03 at cycle   7 NSaved=   7.
 NSaved= 7 IEnMin= 7 EnMin= -649.178172717319     IErMin= 7 ErrMin= 2.26D-03
 ErrMax= 2.26D-03  0.00D+00 EMaxC= 1.00D-01 BMatC= 1.28D-04 BMatP= 1.87D-03
 IDIUse=3 WtCom= 9.77D-01 WtEn= 2.26D-02
 Coeff-Com:  0.214D-02-0.547D-02-0.105D-01 0.152D-01 0.180D+00 0.493D-01
 Coeff-Com:  0.769D+00
 Coeff-En:   0.000D+00 0.000D+00 0.000D+00 0.000D+00 0.965D-01 0.000D+00
 Coeff-En:   0.903D+00
 Coeff:      0.209D-02-0.535D-02-0.103D-01 0.149D-01 0.179D+00 0.482D-01
 Coeff:      0.772D+00
 Gap=     0.025 Goal=   None    Shift=    0.000
 RMSDP=1.31D-03 MaxDP=4.59D-02 DE=-1.76D-02 OVMax= 3.88D-02

 Cycle   8  Pass 1  IDiag  1:
 E= -649.179021079158     Delta-E=       -0.000848361840 Rises=F Damp=F
 DIIS: error= 3.94D-04 at cycle   8 NSaved=   8.
 NSaved= 8 IEnMin= 8 EnMin= -649.179021079158     IErMin= 8 ErrMin= 3.94D-04
 ErrMax= 3.94D-04  0.00D+00 EMaxC= 1.00D-01 BMatC= 6.98D-06 BMatP= 1.28D-04
 IDIUse=3 WtCom= 9.96D-01 WtEn= 3.94D-03
 Coeff-Com: -0.307D-01 0.417D-01-0.450D-02-0.848D-02 0.369D-01-0.713D-02
 Coeff-Com:  0.247D+00 0.725D+00
 Coeff-En:   0.000D+00 0.000D+00 0.000D+00 0.000D+00 0.000D+00 0.000D+00
 Coeff-En:   0.000D+00 0.100D+01
 Coeff:     -0.306D-01 0.416D-01-0.448D-02-0.845D-02 0.368D-01-0.710D-02
 Coeff:      0.246D+00 0.726D+00
 Gap=     0.025 Goal=   None    Shift=    0.000
 RMSDP=2.60D-04 MaxDP=1.22D-02 DE=-8.48D-04 OVMax= 4.50D-03

 Cycle   9  Pass 1  IDiag  1:
 E= -649.179042018159     Delta-E=       -0.000020939000 Rises=F Damp=F
 DIIS: error= 3.04D-04 at cycle   9 NSaved=   9.
 NSaved= 9 IEnMin= 9 EnMin= -649.179042018159     IErMin= 9 ErrMin= 3.04D-04
 ErrMax= 3.04D-04  0.00D+00 EMaxC= 1.00D-01 BMatC= 2.11D-06 BMatP= 6.98D-06
 IDIUse=3 WtCom= 9.97D-01 WtEn= 3.04D-03
 Coeff-Com: -0.116D-01 0.154D-01-0.150D-02-0.395D-02 0.143D-01-0.101D-01
 Coeff-Com:  0.247D-01 0.169D+00 0.804D+00
 Coeff-En:   0.000D+00 0.000D+00 0.000D+00 0.000D+00 0.000D+00 0.000D+00
 Coeff-En:   0.000D+00 0.000D+00 0.100D+01
 Coeff:     -0.116D-01 0.153D-01-0.150D-02-0.393D-02 0.143D-01-0.101D-01
 Coeff:      0.246D-01 0.168D+00 0.804D+00
 Gap=     0.025 Goal=   None    Shift=    0.000
 RMSDP=9.98D-05 MaxDP=3.86D-03 DE=-2.09D-05 OVMax= 2.03D-03

 Cycle  10  Pass 1  IDiag  1:
 E= -649.179048846074     Delta-E=       -0.000006827916 Rises=F Damp=F
 DIIS: error= 2.07D-04 at cycle  10 NSaved=  10.
 NSaved=10 IEnMin=10 EnMin= -649.179048846074     IErMin=10 ErrMin= 2.07D-04
 ErrMax= 2.07D-04  0.00D+00 EMaxC= 1.00D-01 BMatC= 8.91D-07 BMatP= 2.11D-06
 IDIUse=3 WtCom= 9.98D-01 WtEn= 2.07D-03
 Coeff-Com: -0.619D-03 0.907D-03 0.337D-04 0.419D-03 0.296D-02-0.119D-01
 Coeff-Com: -0.382D-01-0.770D-01 0.278D+00 0.846D+00
 Coeff-En:   0.000D+00 0.000D+00 0.000D+00 0.000D+00 0.000D+00 0.000D+00
 Coeff-En:   0.000D+00 0.000D+00 0.000D+00 0.100D+01
 Coeff:     -0.618D-03 0.905D-03 0.336D-04 0.418D-03 0.295D-02-0.119D-01
 Coeff:     -0.382D-01-0.768D-01 0.277D+00 0.846D+00
 Gap=     0.025 Goal=   None    Shift=    0.000
 RMSDP=1.01D-04 MaxDP=2.95D-03 DE=-6.83D-06 OVMax= 3.77D-03

 Cycle  11  Pass 1  IDiag  1:
 E= -649.179056466811     Delta-E=       -0.000007620736 Rises=F Damp=F
 DIIS: error= 4.26D-05 at cycle  11 NSaved=  11.
 NSaved=11 IEnMin=11 EnMin= -649.179056466811     IErMin=11 ErrMin= 4.26D-05
 ErrMax= 4.26D-05  0.00D+00 EMaxC= 1.00D-01 BMatC= 4.08D-08 BMatP= 8.91D-07
 IDIUse=1 WtCom= 1.00D+00 WtEn= 0.00D+00
 Coeff-Com:  0.255D-03-0.335D-03 0.258D-03 0.313D-03 0.838D-04-0.282D-02
 Coeff-Com:  0.170D-02-0.913D-02-0.585D-01-0.437D-01 0.111D+01
 Coeff:      0.255D-03-0.335D-03 0.258D-03 0.313D-03 0.838D-04-0.282D-02
 Coeff:      0.170D-02-0.913D-02-0.585D-01-0.437D-01 0.111D+01
 Gap=     0.025 Goal=   None    Shift=    0.000
 RMSDP=4.56D-05 MaxDP=1.50D-03 DE=-7.62D-06 OVMax= 1.26D-03

 Cycle  12  Pass 1  IDiag  1:
 E= -649.179056806361     Delta-E=       -0.000000339550 Rises=F Damp=F
 DIIS: error= 1.19D-05 at cycle  12 NSaved=  12.
 NSaved=12 IEnMin=12 EnMin= -649.179056806361     IErMin=12 ErrMin= 1.19D-05
 ErrMax= 1.19D-05  0.00D+00 EMaxC= 1.00D-01 BMatC= 2.52D-09 BMatP= 4.08D-08
 IDIUse=1 WtCom= 1.00D+00 WtEn= 0.00D+00
 Coeff-Com: -0.472D-04 0.719D-04 0.343D-04 0.746D-04-0.228D-03-0.499D-03
 Coeff-Com:  0.234D-02 0.223D-02-0.159D-01-0.250D-01 0.336D+00 0.701D+00
 Coeff:     -0.472D-04 0.719D-04 0.343D-04 0.746D-04-0.228D-03-0.499D-03
 Coeff:      0.234D-02 0.223D-02-0.159D-01-0.250D-01 0.336D+00 0.701D+00
 Gap=     0.025 Goal=   None    Shift=    0.000
 RMSDP=6.20D-06 MaxDP=2.24D-04 DE=-3.40D-07 OVMax= 2.73D-04

 Cycle  13  Pass 1  IDiag  1:
 E= -649.179056829422     Delta-E=       -0.000000023061 Rises=F Damp=F
 DIIS: error= 1.56D-06 at cycle  13 NSaved=  13.
 NSaved=13 IEnMin=13 EnMin= -649.179056829422     IErMin=13 ErrMin= 1.56D-06
 ErrMax= 1.56D-06  0.00D+00 EMaxC= 1.00D-01 BMatC= 4.65D-11 BMatP= 2.52D-09
 IDIUse=1 WtCom= 1.00D+00 WtEn= 0.00D+00
 Coeff-Com: -0.290D-04 0.407D-04 0.858D-05-0.162D-04-0.111D-03 0.117D-03
 Coeff-Com:  0.223D-03 0.720D-03-0.249D-02-0.456D-02-0.117D-01 0.158D+00
 Coeff-Com:  0.860D+00
 Coeff:     -0.290D-04 0.407D-04 0.858D-05-0.162D-04-0.111D-03 0.117D-03
 Coeff:      0.223D-03 0.720D-03-0.249D-02-0.456D-02-0.117D-01 0.158D+00
 Coeff:      0.860D+00
 Gap=     0.025 Goal=   None    Shift=    0.000
 RMSDP=2.53D-06 MaxDP=7.87D-05 DE=-2.31D-08 OVMax= 6.64D-05

 Cycle  14  Pass 1  IDiag  1:
 E= -649.179056829394     Delta-E=        0.000000000028 Rises=F Damp=F
 DIIS: error= 1.34D-06 at cycle  14 NSaved=  14.
 NSaved=14 IEnMin=13 EnMin= -649.179056829422     IErMin=14 ErrMin= 1.34D-06
 ErrMax= 1.34D-06  0.00D+00 EMaxC= 1.00D-01 BMatC= 5.04D-11 BMatP= 4.65D-11
 IDIUse=1 WtCom= 1.00D+00 WtEn= 0.00D+00
 Coeff-Com: -0.269D-04 0.356D-04-0.122D-05-0.229D-04-0.417D-04 0.114D-03
 Coeff-Com: -0.432D-04 0.364D-03 0.491D-03 0.180D-02-0.153D-01 0.349D-01
 Coeff-Com:  0.231D+00 0.746D+00
 Coeff:     -0.269D-04 0.356D-04-0.122D-05-0.229D-04-0.417D-04 0.114D-03
 Coeff:     -0.432D-04 0.364D-03 0.491D-03 0.180D-02-0.153D-01 0.349D-01
 Coeff:      0.231D+00 0.746D+00
 Gap=     0.025 Goal=   None    Shift=    0.000
 RMSDP=4.82D-07 MaxDP=1.48D-05 DE= 2.84D-11 OVMax= 1.89D-05

 Cycle  15  Pass 1  IDiag  1:
 E= -649.179056829725     Delta-E=       -0.000000000332 Rises=F Damp=F
 DIIS: error= 5.44D-07 at cycle  15 NSaved=  15.
 NSaved=15 IEnMin=15 EnMin= -649.179056829725     IErMin=15 ErrMin= 5.44D-07
 ErrMax= 5.44D-07  0.00D+00 EMaxC= 1.00D-01 BMatC= 1.16D-11 BMatP= 4.65D-11
 IDIUse=1 WtCom= 1.00D+00 WtEn= 0.00D+00
 Coeff-Com: -0.977D-05 0.130D-04-0.112D-05-0.119D-04-0.170D-04 0.543D-04
 Coeff-Com: -0.803D-04 0.273D-04-0.108D-03 0.205D-02-0.622D-03 0.495D-02
 Coeff-Com: -0.348D-01 0.676D-01 0.961D+00
 Coeff:     -0.977D-05 0.130D-04-0.112D-05-0.119D-04-0.170D-04 0.543D-04
 Coeff:     -0.803D-04 0.273D-04-0.108D-03 0.205D-02-0.622D-03 0.495D-02
 Coeff:     -0.348D-01 0.676D-01 0.961D+00
 Gap=     0.025 Goal=   None    Shift=    0.000
 RMSDP=1.89D-07 MaxDP=6.23D-06 DE=-3.32D-10 OVMax= 9.05D-06

 Cycle  16  Pass 1  IDiag  1:
 E= -649.179056829809     Delta-E=       -0.000000000083 Rises=F Damp=F
 DIIS: error= 2.43D-07 at cycle  16 NSaved=  16.
 NSaved=16 IEnMin=16 EnMin= -649.179056829809     IErMin=16 ErrMin= 2.43D-07
 ErrMax= 2.43D-07  0.00D+00 EMaxC= 1.00D-01 BMatC= 2.14D-12 BMatP= 1.16D-11
 IDIUse=1 WtCom= 1.00D+00 WtEn= 0.00D+00
 Coeff-Com: -0.542D-06 0.752D-06-0.287D-06-0.266D-05-0.409D-05 0.125D-04
 Coeff-Com: -0.272D-04-0.106D-04-0.139D-03 0.329D-03 0.118D-02-0.130D-02
 Coeff-Com: -0.371D-01-0.145D+00 0.664D-01 0.112D+01
 Coeff:     -0.542D-06 0.752D-06-0.287D-06-0.266D-05-0.409D-05 0.125D-04
 Coeff:     -0.272D-04-0.106D-04-0.139D-03 0.329D-03 0.118D-02-0.130D-02
 Coeff:     -0.371D-01-0.145D+00 0.664D-01 0.112D+01
 Gap=     0.025 Goal=   None    Shift=    0.000
 RMSDP=8.57D-08 MaxDP=3.02D-06 DE=-8.32D-11 OVMax= 5.00D-06

 Cycle  17  Pass 1  IDiag  1:
 E= -649.179056829823     Delta-E=       -0.000000000014 Rises=F Damp=F
 DIIS: error= 6.68D-08 at cycle  17 NSaved=  17.
 NSaved=17 IEnMin=17 EnMin= -649.179056829823     IErMin=17 ErrMin= 6.68D-08
 ErrMax= 6.68D-08  0.00D+00 EMaxC= 1.00D-01 BMatC= 1.52D-13 BMatP= 2.14D-12
 IDIUse=1 WtCom= 1.00D+00 WtEn= 0.00D+00
 Large coefficients: NSaved= 17 BigCof=    0.00 CofMax=   10.00 Det=-4.20D-15
 Inversion failed.  Reducing to 16 matrices.
 Large coefficients: NSaved= 16 BigCof=    0.00 CofMax=   10.00 Det=-4.29D-15
 Inversion failed.  Reducing to 15 matrices.
 Coeff-Com: -0.146D-07 0.281D-07-0.576D-06 0.385D-06 0.947D-06 0.105D-04
 Coeff-Com:  0.269D-06-0.172D-04-0.689D-05 0.151D-02 0.617D-02-0.172D-01
 Coeff-Com: -0.105D+00 0.500D-01 0.106D+01
 Coeff:     -0.146D-07 0.281D-07-0.576D-06 0.385D-06 0.947D-06 0.105D-04
 Coeff:      0.269D-06-0.172D-04-0.689D-05 0.151D-02 0.617D-02-0.172D-01
 Coeff:     -0.105D+00 0.500D-01 0.106D+01
 Gap=     0.025 Goal=   None    Shift=    0.000
 RMSDP=3.54D-08 MaxDP=1.18D-06 DE=-1.44D-11 OVMax= 1.80D-06

 Cycle  18  Pass 1  IDiag  1:
 E= -649.179056829826     Delta-E=       -0.000000000003 Rises=F Damp=F
 DIIS: error= 1.41D-09 at cycle  18 NSaved=  16.
 NSaved=16 IEnMin=16 EnMin= -649.179056829826     IErMin=16 ErrMin= 1.41D-09
 ErrMax= 1.41D-09  0.00D+00 EMaxC= 1.00D-01 BMatC= 1.34D-16 BMatP= 1.52D-13
 IDIUse=1 WtCom= 1.00D+00 WtEn= 0.00D+00
 Large coefficients: NSaved= 16 BigCof=    0.00 CofMax=   10.00 Det=-2.26D-16
 Inversion failed.  Reducing to 15 matrices.
 Coeff-Com: -0.333D-08-0.138D-06 0.182D-06 0.643D-07 0.126D-05 0.291D-06
 Coeff-Com:  0.124D-05-0.133D-04 0.290D-03 0.156D-02 0.109D-02-0.173D-01
 Coeff-Com: -0.144D-01 0.186D+00 0.843D+00
 Coeff:     -0.333D-08-0.138D-06 0.182D-06 0.643D-07 0.126D-05 0.291D-06
 Coeff:      0.124D-05-0.133D-04 0.290D-03 0.156D-02 0.109D-02-0.173D-01
 Coeff:     -0.144D-01 0.186D+00 0.843D+00
 Gap=     0.025 Goal=   None    Shift=    0.000
 RMSDP=2.04D-09 MaxDP=5.66D-08 DE=-3.30D-12 OVMax= 2.72D-08

 SCF Done:  E(RB3LYP) =  -649.179056830     A.U. after   18 cycles
            NFock= 18  Conv=0.20D-08     -V/T= 2.0029
 KE= 6.473014054582D+02 PE=-1.711809715650D+03 EE= 3.389225506059D+02
 Leave Link  502 at Fri Oct  6 22:04:50 2023, MaxMem=  1610612736 cpu:             197.7 elap:             124.3
 (Enter /home/sekinelabo/g16/l601.exe)
 Copying SCF densities to generalized density rwf, IOpCl= 0 IROHF=0.

 **********************************************************************

            Population analysis using the SCF Density.

 **********************************************************************

 Orbital symmetries:
       Occupied  (A) (A) (A) (A) (A) (A) (A) (A) (A) (A) (A) (A)
                 (A) (A) (A) (A) (A) (A) (A) (A) (A) (A)
       Virtual   (A) (A) (A) (A) (A) (A) (A) (A) (A) (A) (A) (A)
                 (A) (A) (A) (A) (A) (A) (A) (A) (A) (A) (A) (A)
                 (A) (A) (A) (A) (A) (A) (A) (A) (A) (A) (A) (A)
                 (A) (A) (A) (A) (A) (A) (A) (A) (A) (A) (A) (A)
                 (A) (A) (A) (A) (A) (A) (A) (A) (A) (A) (A) (A)
                 (A) (A) (A) (A) (A) (A) (A) (A) (A) (A) (A) (A)
                 (A) (A) (A) (A) (A) (A) (A) (A) (A) (A) (A) (A)
                 (A) (A) (A) (A) (A) (A) (A) (A) (A) (A) (A) (A)
                 (A) (A)
 The electronic state is 1-A.
 Alpha  occ. eigenvalues --  -38.46514 -38.45368 -38.45354 -38.43937  -2.22187
 Alpha  occ. eigenvalues --   -2.21125  -2.21106  -2.19764  -1.15863  -1.15863
 Alpha  occ. eigenvalues --   -1.15831  -1.14816  -1.14788  -1.14769  -1.14769
 Alpha  occ. eigenvalues --   -1.14769  -1.14760  -1.13433  -1.13428  -1.13419
 Alpha  occ. eigenvalues --   -0.14405  -0.11496
 Alpha virt. eigenvalues --   -0.08958  -0.04482  -0.03049  -0.03032  -0.01880
 Alpha virt. eigenvalues --   -0.01812  -0.01611  -0.00673  -0.00551  -0.00003
 Alpha virt. eigenvalues --    0.00108   0.00955   0.01132   0.01169   0.01182
 Alpha virt. eigenvalues --    0.01419   0.01468   0.01801   0.02009   0.02078
 Alpha virt. eigenvalues --    0.02131   0.02241   0.02599   0.02825   0.03486
 Alpha virt. eigenvalues --    0.03638   0.03746   0.03985   0.04938   0.05535
 Alpha virt. eigenvalues --    0.07255   0.07421   0.07455   0.07528   0.07943
 Alpha virt. eigenvalues --    0.08091   0.08295   0.08527   0.09015   0.10317
 Alpha virt. eigenvalues --    0.10643   0.10822   0.11604   0.14613   0.14986
 Alpha virt. eigenvalues --    0.17969   0.27529   0.27773   0.31583   0.32193
 Alpha virt. eigenvalues --    0.32272   0.34091   0.34153   0.34202   0.34343
 Alpha virt. eigenvalues --    0.34608   0.34746   0.35897   0.37246   0.37400
 Alpha virt. eigenvalues --    0.37810   0.38986   0.39097   0.42137   0.42233
 Alpha virt. eigenvalues --    0.43007   0.43114   0.43537   0.43733   0.44255
 Alpha virt. eigenvalues --    0.44906   0.45357   0.46306   0.48465   0.51489
 Alpha virt. eigenvalues --    0.52000   0.60953   0.73237   2.00119   2.01840
 Alpha virt. eigenvalues --    2.11008   2.18034   4.40093   4.42194   4.42333
 Alpha virt. eigenvalues --    4.43281   4.43321   4.43426   4.43728   4.43935
 Alpha virt. eigenvalues --    4.46225   4.46406   4.52797   4.63911  96.19005
 Alpha virt. eigenvalues --   96.21074  96.32435  96.40824
          Condensed to atoms (all electrons):
               1          2          3          4
     1  Na  11.974670   0.361804  -0.399257  -0.128910
     2  Na   0.361804  10.726465  -0.277096  -0.017785
     3  Na  -0.399257  -0.277096  10.912790   0.183403
     4  Na  -0.128910  -0.017785   0.183403  10.941755
 Mulliken charges:
               1
     1  Na  -0.808308
     2  Na   0.206612
     3  Na   0.580160
     4  Na   0.021536
 Sum of Mulliken charges =  -0.00000
 Mulliken charges with hydrogens summed into heavy atoms:
               1
     1  Na  -0.808308
     2  Na   0.206612
     3  Na   0.580160
     4  Na   0.021536
 Electronic spatial extent (au):  <R**2>=           2810.0498
 Charge=             -0.0000 electrons
 Dipole moment (field-independent basis, Debye):
    X=              0.3330    Y=             -0.1856    Z=             -0.0556  Tot=              0.3853
 Quadrupole moment (field-independent basis, Debye-Ang):
   XX=            -18.5088   YY=            -43.3221   ZZ=            -44.8388
   XY=              0.2187   XZ=             -0.3971   YZ=             -0.0619
 Traceless Quadrupole moment (field-independent basis, Debye-Ang):
   XX=             17.0478   YY=             -7.7656   ZZ=             -9.2823
   XY=              0.2187   XZ=             -0.3971   YZ=             -0.0619
 Octapole moment (field-independent basis, Debye-Ang**2):
  XXX=             17.5786  YYY=              1.5783  ZZZ=             -0.0488  XYY=              4.3976
  XXY=            -31.2515  XXZ=             -3.2861  XZZ=              6.2989  YZZ=              0.1458
  YYZ=             -0.1614  XYZ=              0.3357
 Hexadecapole moment (field-independent basis, Debye-Ang**3):
 XXXX=          -2999.0651 YYYY=           -261.5381 ZZZZ=           -193.8187 XXXY=             43.3536
 XXXZ=            -21.8995 YYYX=             -1.9156 YYYZ=             -0.5297 ZZZX=             -1.8759
 ZZZY=             -0.5321 XXYY=           -805.1458 XXZZ=           -811.1344 YYZZ=            -76.1320
 XXYZ=              1.8678 YYXZ=             -0.7392 ZZXY=             -0.2891
 N-N= 7.640670275576D+01 E-N=-1.711809715729D+03  KE= 6.473014054582D+02
 No NMR shielding tensors so no spin-rotation constants.
 Leave Link  601 at Fri Oct  6 22:04:55 2023, MaxMem=  1610612736 cpu:               8.5 elap:               5.4
 (Enter /home/sekinelabo/g16/l701.exe)
 ... and contract with generalized density number  0.
 Compute integral first derivatives.
 Leave Link  701 at Fri Oct  6 22:05:00 2023, MaxMem=  1610612736 cpu:               7.1 elap:               4.3
 (Enter /home/sekinelabo/g16/l702.exe)
 L702 exits ... SP integral derivatives will be done elsewhere.
 Leave Link  702 at Fri Oct  6 22:05:00 2023, MaxMem=  1610612736 cpu:               0.7 elap:               0.5
 (Enter /home/sekinelabo/g16/l703.exe)
 Integral derivatives from FoFJK, PRISM(SPDF).
 Compute integral first derivatives, UseDBF=F ICtDFT=           0.
 Calling FoFJK, ICntrl=      2127 FMM=F ISym2X=0 I1Cent= 0 IOpClX= 0 NMat=1 NMatS=1 NMatT=0.
 FoFJK:  IHMeth= 1 ICntrl=    2127 DoSepK=F KAlg= 0 I1Cent=           0 FoldK=F
 IRaf=         0 NMat=       1 IRICut=       1 DoRegI=T DoRafI=F ISym2E= 0 IDoP0=0 IntGTp=1.
 FoFCou: FMM=F IPFlag=           0 FMFlag=      100000 FMFlg1=         800
         NFxFlg=           0 DoJE=F BraDBF=F KetDBF=F FulRan=T
         wScrn=  0.000000 ICntrl=      2127 IOpCl=  0 I1Cent=           0 NGrid=           0
         NMat0=    1 NMatS0=      1 NMatT0=    0 NMatD0=    1 NMtDS0=    0 NMtDT0=    0
 Symmetry not used in FoFCou.
 Leave Link  703 at Fri Oct  6 22:05:08 2023, MaxMem=  1610612736 cpu:              12.6 elap:               7.8
 (Enter /home/sekinelabo/g16/l716.exe)
 Dipole        = 1.31024159D-01-7.30014458D-02-2.18840350D-02
 ***** Axes restored to original set *****
 -------------------------------------------------------------------
 Center     Atomic                   Forces (Hartrees/Bohr)
 Number     Number              X              Y              Z
 -------------------------------------------------------------------
      1       11          -0.000149991   -0.000056897   -0.005520257
      2       11           0.000218843    0.000030496    0.001463491
      3       11           0.002254479   -0.001280276    0.008199366
      4       11          -0.002323331    0.001306677   -0.004142601
 -------------------------------------------------------------------
 Cartesian Forces:  Max     0.008199366 RMS     0.003302870
 Z-matrix is all fixed cartesians, so copy forces.
 Force constants in Cartesian coordinates: 
                1             2             3             4             5 
      1  0.282516D-01
      2  0.000000D+00  0.000000D+00
      3  0.201763D-02  0.000000D+00  0.574429D-01
      4 -0.139788D-01  0.000000D+00 -0.330621D-02  0.713929D-02
      5  0.000000D+00  0.000000D+00  0.000000D+00  0.000000D+00  0.000000D+00
      6 -0.201763D-02  0.000000D+00 -0.240649D-01  0.330621D-02  0.000000D+00
      7 -0.142728D-01  0.000000D+00  0.128858D-02  0.683946D-02  0.000000D+00
      8  0.000000D+00  0.000000D+00  0.000000D+00  0.000000D+00  0.000000D+00
      9  0.000000D+00  0.000000D+00 -0.333780D-01  0.000000D+00  0.000000D+00
     10  0.000000D+00  0.000000D+00  0.000000D+00  0.000000D+00  0.000000D+00
     11  0.000000D+00  0.000000D+00  0.000000D+00  0.000000D+00  0.000000D+00
     12  0.000000D+00  0.000000D+00  0.000000D+00  0.000000D+00  0.000000D+00
                6             7             8             9            10 
      6  0.240649D-01
      7 -0.128858D-02  0.743336D-02
      8  0.000000D+00  0.000000D+00  0.000000D+00
      9  0.000000D+00  0.000000D+00  0.000000D+00  0.333780D-01
     10  0.000000D+00  0.000000D+00  0.000000D+00  0.000000D+00  0.100000D+01
     11  0.000000D+00  0.000000D+00  0.000000D+00  0.000000D+00  0.000000D+00
     12  0.000000D+00  0.000000D+00  0.000000D+00  0.000000D+00  0.000000D+00
               11            12 
     11  0.100000D+01
     12  0.000000D+00  0.100000D+01
 Leave Link  716 at Fri Oct  6 22:05:08 2023, MaxMem=  1610612736 cpu:               0.7 elap:               0.5
 (Enter /home/sekinelabo/g16/l103.exe)

 GradGradGradGradGradGradGradGradGradGradGradGradGradGradGradGradGradGrad
 Berny optimization.
 Search for a local minimum.
 Step number   1 out of a maximum of    2
 All quantities printed in internal units (Hartrees-Bohrs-Radians)
 Second derivative matrix not updated -- first step.
 The second derivative matrix:
                          X1        Y1        Z1        X2        Y2
           X1           0.02825
           Y1          -0.00000   0.00000
           Z1           0.00202   0.00000   0.05744
           X2          -0.01398   0.00000  -0.00331   0.00714
           Y2           0.00000  -0.00000   0.00000  -0.00000   0.00000
           Z2          -0.00202  -0.00000  -0.02406   0.00331  -0.00000
           X3          -0.01427   0.00000   0.00129   0.00684  -0.00000
           Y3           0.00000   0.00000  -0.00000  -0.00000   0.00000
           Z3          -0.00000  -0.00000  -0.03338   0.00000   0.00000
           X4           0.00000   0.00000   0.00000   0.00000   0.00000
           Y4           0.00000   0.00000   0.00000   0.00000   0.00000
           Z4           0.00000   0.00000   0.00000   0.00000   0.00000
                          Z2        X3        Y3        Z3        X4
           Z2           0.02406
           X3          -0.00129   0.00743
           Y3           0.00000  -0.00000  -0.00000
           Z3          -0.00000   0.00000   0.00000   0.03338
           X4           0.00000   0.00000   0.00000   0.00000   1.00000
           Y4           0.00000   0.00000   0.00000   0.00000  -0.00000
           Z4           0.00000   0.00000   0.00000   0.00000   0.00000
                          Y4        Z4
           Y4           1.00000
           Z4           0.00000   1.00000
 ITU=  0
     Eigenvalues ---    0.00972   0.02760   0.04252   0.08759   0.21596
     Eigenvalues ---    0.75000
 Angle between quadratic step and forces=  41.73 degrees.
 Linear search not attempted -- first point.
 B after Tr=     0.000000   -0.000000    0.000000
         Rot=    1.000000    0.000000   -0.000000    0.000000 Ang=   0.00 deg.
 Variable       Old X    -DE/DX   Delta X   Delta X   Delta X     New X
                                 (Linear)    (Quad)   (Total)
    X1       -0.00000  -0.00015   0.00000  -0.01943  -0.01943  -0.01943
    Y1        0.00000  -0.00006   0.00000   0.04065   0.04065   0.04065
    Z1        0.00000  -0.00552   0.00000  -0.06676  -0.06676  -0.06676
    X2       -1.14678   0.00022   0.00000  -0.00130  -0.00130  -1.14808
    Y2        0.00000   0.00003   0.00000  -0.02113  -0.02113  -0.02113
    Z2       -6.08684   0.00146   0.00000  -0.06858  -0.06858  -6.15543
    X3       -0.00000   0.00225   0.00000   0.02897   0.02897   0.02897
    Y3        0.00000  -0.00128   0.00000  -0.01897  -0.01897  -0.01897
    Z3        5.79932   0.00820   0.00000   0.13945   0.13945   5.93878
    X4        4.69610  -0.00232   0.00000  -0.00824  -0.00824   4.68786
    Y4       -2.62607   0.00131   0.00000  -0.00055  -0.00055  -2.62662
    Z4       14.14981  -0.00414   0.00000  -0.00411  -0.00411  14.14569
         Item               Value     Threshold  Converged?
 Maximum Force            0.008199     0.000450     NO 
 RMS     Force            0.003303     0.000300     NO 
 Maximum Displacement     0.139453     0.001800     NO 
 RMS     Displacement     0.051937     0.001200     NO 
 Predicted change in Energy=-7.681592D-04
 GradGradGradGradGradGradGradGradGradGradGradGradGradGradGradGradGradGrad

 Leave Link  103 at Fri Oct  6 22:05:11 2023, MaxMem=  1610612736 cpu:               4.1 elap:               2.6
 (Enter /home/sekinelabo/g16/l9999.exe)
 1\1\GINC-SEKINELABO-XA7R-R37\Force\RB3LYP\6-311+G(d)\Na4\SEKINELABO\06
 -Oct-2023\0\\#p B3LYP/6-311+g(d) force\\\0,1\Na,0.,0.,0.\Na,-0.6068521
 406,0.,-3.2210196012\Na,0.,0.,3.068870242\Na,2.4850710984,-1.389655850
 6,7.4877555788\\Version=ES64L-G16RevB.01\State=1-A\HF=-649.1790568\RMS
 D=2.038e-09\RMSF=3.303e-03\Dipole=0.0098053,-0.0420895,-0.1452852\Quad
 rupole=-4.6171071,-6.3390862,10.9561933,-1.112649,4.9956246,-1.9885306
 \PG=C01 [X(Na4)]\\@


 MORNING PEOPLE ARE USUALLY ADMIRED AS EARLY BIRDS.
 RECALL BEN FRANKLIN'S APHORISM THAT THE EARLY BIRD GETS THE WORM.
 I IDENTIFY WITH THE WORM. --  CRAIG JAGGER, MINNEAPOLIS, KS.
 Job cpu time:       0 days  0 hours  4 minutes 36.0 seconds.
 Elapsed time:       0 days  0 hours  2 minutes 53.1 seconds.
 File lengths (MBytes):  RWF=     10 Int=      0 D2E=      0 Chk=      2 Scr=      1
 Normal termination of Gaussian 16 at Fri Oct  6 22:05:12 2023.
 Initial command:
 /home/sekinelabo/g16/l1.exe "/home/sekinelabo/g16temp/Gau-708792.inp" -scrdir="/home/sekinelabo/g16temp/"
 Entering Link 1 = /home/sekinelabo/g16/l1.exe PID=    714771.
  
 Copyright (c) 1988-2017, Gaussian, Inc.  All Rights Reserved.
  
 This is part of the Gaussian(R) 16 program.  It is based on
 the Gaussian(R) 09 system (copyright 2009, Gaussian, Inc.),
 the Gaussian(R) 03 system (copyright 2003, Gaussian, Inc.),
 the Gaussian(R) 98 system (copyright 1998, Gaussian, Inc.),
 the Gaussian(R) 94 system (copyright 1995, Gaussian, Inc.),
 the Gaussian 92(TM) system (copyright 1992, Gaussian, Inc.),
 the Gaussian 90(TM) system (copyright 1990, Gaussian, Inc.),
 the Gaussian 88(TM) system (copyright 1988, Gaussian, Inc.),
 the Gaussian 86(TM) system (copyright 1986, Carnegie Mellon
 University), and the Gaussian 82(TM) system (copyright 1983,
 Carnegie Mellon University). Gaussian is a federally registered
 trademark of Gaussian, Inc.
  
 This software contains proprietary and confidential information,
 including trade secrets, belonging to Gaussian, Inc.
  
 This software is provided under written license and may be
 used, copied, transmitted, or stored only in accord with that
 written license.
  
 The following legend is applicable only to US Government
 contracts under FAR:
  
                    RESTRICTED RIGHTS LEGEND
  
 Use, reproduction and disclosure by the US Government is
 subject to restrictions as set forth in subparagraphs (a)
 and (c) of the Commercial Computer Software - Restricted
 Rights clause in FAR 52.227-19.
  
 Gaussian, Inc.
 340 Quinnipiac St., Bldg. 40, Wallingford CT 06492
  
  
 ---------------------------------------------------------------
 Warning -- This program may not be used in any manner that
 competes with the business of Gaussian, Inc. or will provide
 assistance to any competitor of Gaussian, Inc.  The licensee
 of this program is prohibited from giving any competitor of
 Gaussian, Inc. access to this program.  By using this program,
 the user acknowledges that Gaussian, Inc. is engaged in the
 business of creating and licensing software in the field of
 computational chemistry and represents and warrants to the
 licensee that it is not a competitor of Gaussian, Inc. and that
 it will not use this program in any manner prohibited above.
 ---------------------------------------------------------------
  

 Cite this work as:
 Gaussian 16, Revision B.01,
[...]
 DIIS: error= 4.07D-05 at cycle  12 NSaved=  12.
 NSaved=12 IEnMin=12 EnMin= -649.154385786272     IErMin=12 ErrMin= 4.07D-05
 ErrMax= 4.07D-05  0.00D+00 EMaxC= 1.00D-01 BMatC= 1.68D-07 BMatP= 2.79D-07
 IDIUse=1 WtCom= 1.00D+00 WtEn= 0.00D+00
 Coeff-Com:  0.483D-04-0.424D-04-0.291D-03-0.283D-04 0.146D-02-0.687D-02
 Coeff-Com: -0.917D-01-0.357D+00 0.411D+00 0.696D-01-0.221D-01 0.996D+00
 Coeff:      0.483D-04-0.424D-04-0.291D-03-0.283D-04 0.146D-02-0.687D-02
 Coeff:     -0.917D-01-0.357D+00 0.411D+00 0.696D-01-0.221D-01 0.996D+00
 Gap=     0.018 Goal=   None    Shift=    0.000
 RMSDP=2.42D-05 MaxDP=1.17D-03 DE=-1.43D-06 OVMax= 2.45D-03

 Cycle  13  Pass 1  IDiag  1:
 E= -649.154387368269     Delta-E=       -0.000001581997 Rises=F Damp=F
 DIIS: error= 7.68D-06 at cycle  13 NSaved=  13.
 NSaved=13 IEnMin=13 EnMin= -649.154387368269     IErMin=13 ErrMin= 7.68D-06
 ErrMax= 7.68D-06  0.00D+00 EMaxC= 1.00D-01 BMatC= 4.25D-09 BMatP= 1.68D-07
 IDIUse=1 WtCom= 1.00D+00 WtEn= 0.00D+00
 Coeff-Com: -0.362D-03 0.466D-03 0.965D-04-0.212D-03 0.340D-02 0.134D-01
 Coeff-Com:  0.320D-01-0.478D+00 0.445D+00-0.489D-01-0.273D+00 0.333D+00
 Coeff-Com:  0.973D+00
 Coeff:     -0.362D-03 0.466D-03 0.965D-04-0.212D-03 0.340D-02 0.134D-01
 Coeff:      0.320D-01-0.478D+00 0.445D+00-0.489D-01-0.273D+00 0.333D+00
 Coeff:      0.973D+00
 Gap=     0.018 Goal=   None    Shift=    0.000
 RMSDP=1.13D-05 MaxDP=3.22D-04 DE=-1.58D-06 OVMax= 1.30D-03

 Cycle  14  Pass 1  IDiag  1:
 E= -649.154387392533     Delta-E=       -0.000000024264 Rises=F Damp=F
 DIIS: error= 8.68D-06 at cycle  14 NSaved=  14.
 NSaved=14 IEnMin=14 EnMin= -649.154387392533     IErMin=13 ErrMin= 7.68D-06
 ErrMax= 8.68D-06  0.00D+00 EMaxC= 1.00D-01 BMatC= 7.51D-09 BMatP= 4.25D-09
 IDIUse=1 WtCom= 1.00D+00 WtEn= 0.00D+00
 Coeff-Com:  0.556D-04-0.760D-04-0.510D-05-0.360D-05-0.228D-03-0.106D-02
 Coeff-Com:  0.270D-02 0.337D-01-0.268D-01 0.799D-02-0.202D-01-0.870D-01
 Coeff-Com:  0.109D+00 0.982D+00
 Coeff:      0.556D-04-0.760D-04-0.510D-05-0.360D-05-0.228D-03-0.106D-02
 Coeff:      0.270D-02 0.337D-01-0.268D-01 0.799D-02-0.202D-01-0.870D-01
 Coeff:      0.109D+00 0.982D+00
 Gap=     0.018 Goal=   None    Shift=    0.000
 RMSDP=3.74D-06 MaxDP=1.96D-04 DE=-2.43D-08 OVMax= 3.53D-04

 Cycle  15  Pass 1  IDiag  1:
 E= -649.154387453077     Delta-E=       -0.000000060545 Rises=F Damp=F
 DIIS: error= 1.17D-06 at cycle  15 NSaved=  15.
 NSaved=15 IEnMin=15 EnMin= -649.154387453077     IErMin=15 ErrMin= 1.17D-06
 ErrMax= 1.17D-06  0.00D+00 EMaxC= 1.00D-01 BMatC= 1.44D-10 BMatP= 4.25D-09
 IDIUse=1 WtCom= 1.00D+00 WtEn= 0.00D+00
 Coeff-Com:  0.234D-04-0.312D-04 0.993D-05-0.853D-06-0.174D-05-0.401D-03
 Coeff-Com:  0.142D-02 0.219D-01-0.224D-01 0.571D-02 0.306D-02-0.497D-01
 Coeff-Com:  0.537D-02 0.254D+00 0.781D+00
 Coeff:      0.234D-04-0.312D-04 0.993D-05-0.853D-06-0.174D-05-0.401D-03
 Coeff:      0.142D-02 0.219D-01-0.224D-01 0.571D-02 0.306D-02-0.497D-01
 Coeff:      0.537D-02 0.254D+00 0.781D+00
 Gap=     0.018 Goal=   None    Shift=    0.000
 RMSDP=5.05D-07 MaxDP=1.94D-05 DE=-6.05D-08 OVMax= 4.38D-05

 Cycle  16  Pass 1  IDiag  1:
 E= -649.154387454041     Delta-E=       -0.000000000963 Rises=F Damp=F
 DIIS: error= 5.94D-07 at cycle  16 NSaved=  16.
 NSaved=16 IEnMin=16 EnMin= -649.154387454041     IErMin=16 ErrMin= 5.94D-07
 ErrMax= 5.94D-07  0.00D+00 EMaxC= 1.00D-01 BMatC= 4.04D-11 BMatP= 1.44D-10
 IDIUse=1 WtCom= 1.00D+00 WtEn= 0.00D+00
 Coeff-Com:  0.240D-05-0.266D-05 0.626D-06-0.747D-06 0.122D-04-0.266D-04
 Coeff-Com: -0.224D-03-0.120D-02 0.598D-03 0.963D-03 0.285D-02-0.424D-03
 Coeff-Com: -0.169D-01-0.657D-01 0.236D-01 0.106D+01
 Coeff:      0.240D-05-0.266D-05 0.626D-06-0.747D-06 0.122D-04-0.266D-04
 Coeff:     -0.224D-03-0.120D-02 0.598D-03 0.963D-03 0.285D-02-0.424D-03
 Coeff:     -0.169D-01-0.657D-01 0.236D-01 0.106D+01
 Gap=     0.018 Goal=   None    Shift=    0.000
 RMSDP=3.16D-07 MaxDP=1.48D-05 DE=-9.63D-10 OVMax= 2.74D-05

 Cycle  17  Pass 1  IDiag  1:
 E= -649.154387454361     Delta-E=       -0.000000000320 Rises=F Damp=F
 DIIS: error= 8.15D-08 at cycle  17 NSaved=  17.
 NSaved=17 IEnMin=17 EnMin= -649.154387454361     IErMin=17 ErrMin= 8.15D-08
 ErrMax= 8.15D-08  0.00D+00 EMaxC= 1.00D-01 BMatC= 6.85D-13 BMatP= 4.04D-11
 IDIUse=1 WtCom= 1.00D+00 WtEn= 0.00D+00
 Coeff-Com: -0.130D-05 0.183D-05-0.189D-06-0.224D-06-0.391D-05 0.938D-05
 Coeff-Com: -0.156D-03-0.954D-03 0.109D-02-0.836D-04-0.202D-03 0.243D-02
 Coeff-Com:  0.592D-03-0.149D-01-0.481D-01 0.539D-01 0.101D+01
 Coeff:     -0.130D-05 0.183D-05-0.189D-06-0.224D-06-0.391D-05 0.938D-05
 Coeff:     -0.156D-03-0.954D-03 0.109D-02-0.836D-04-0.202D-03 0.243D-02
 Coeff:      0.592D-03-0.149D-01-0.481D-01 0.539D-01 0.101D+01
 Gap=     0.018 Goal=   None    Shift=    0.000
 RMSDP=4.01D-08 MaxDP=2.50D-06 DE=-3.20D-10 OVMax= 3.72D-06

 Cycle  18  Pass 1  IDiag  1:
 E= -649.154387454373     Delta-E=       -0.000000000012 Rises=F Damp=F
 DIIS: error= 5.97D-09 at cycle  18 NSaved=  18.
 NSaved=18 IEnMin=18 EnMin= -649.154387454373     IErMin=18 ErrMin= 5.97D-09
 ErrMax= 5.97D-09  0.00D+00 EMaxC= 1.00D-01 BMatC= 2.25D-15 BMatP= 6.85D-13
 IDIUse=1 WtCom= 1.00D+00 WtEn= 0.00D+00
 Large coefficients: NSaved= 18 BigCof=    0.00 CofMax=   10.00 Det=-9.50D-15
 Inversion failed.  Reducing to 17 matrices.
 Large coefficients: NSaved= 17 BigCof=    0.00 CofMax=   10.00 Det=-9.53D-15
 Inversion failed.  Reducing to 16 matrices.
 Large coefficients: NSaved= 16 BigCof=    0.00 CofMax=   10.00 Det=-9.75D-15
 Inversion failed.  Reducing to 15 matrices.
 Coeff-Com: -0.140D-07-0.228D-05-0.176D-05-0.341D-05-0.333D-04 0.606D-04
 Coeff-Com: -0.318D-04-0.981D-04 0.288D-03 0.763D-03-0.530D-03-0.741D-02
 Coeff-Com: -0.110D-01 0.129D+00 0.889D+00
 Coeff:     -0.140D-07-0.228D-05-0.176D-05-0.341D-05-0.333D-04 0.606D-04
 Coeff:     -0.318D-04-0.981D-04 0.288D-03 0.763D-03-0.530D-03-0.741D-02
 Coeff:     -0.110D-01 0.129D+00 0.889D+00
 Gap=     0.018 Goal=   None    Shift=    0.000
 RMSDP=6.15D-09 MaxDP=1.83D-07 DE=-1.16D-11 OVMax= 3.45D-07

 SCF Done:  E(RB3LYP) =  -649.154387454     A.U. after   18 cycles
            NFock= 18  Conv=0.61D-08     -V/T= 2.0030
 KE= 6.471951700425D+02 PE=-1.701762310750D+03 EE= 3.338645041699D+02
 Leave Link  502 at Sat Oct  7 02:08:43 2023, MaxMem=  1610612736 cpu:             195.0 elap:             100.2
 (Enter /home/sekinelabo/g16/l601.exe)
 Copying SCF densities to generalized density rwf, IOpCl= 0 IROHF=0.

 **********************************************************************

            Population analysis using the SCF Density.

 **********************************************************************

 Orbital symmetries:
       Occupied  (A) (A) (A) (A) (A) (A) (A) (A) (A) (A) (A) (A)
                 (A) (A) (A) (A) (A) (A) (A) (A) (A) (A)
       Virtual   (A) (A) (A) (A) (A) (A) (A) (A) (A) (A) (A) (A)
                 (A) (A) (A) (A) (A) (A) (A) (A) (A) (A) (A) (A)
                 (A) (A) (A) (A) (A) (A) (A) (A) (A) (A) (A) (A)
                 (A) (A) (A) (A) (A) (A) (A) (A) (A) (A) (A) (A)
                 (A) (A) (A) (A) (A) (A) (A) (A) (A) (A) (A) (A)
                 (A) (A) (A) (A) (A) (A) (A) (A) (A) (A) (A) (A)
                 (A) (A) (A) (A) (A) (A) (A) (A) (A) (A) (A) (A)
                 (A) (A) (A) (A) (A) (A) (A) (A) (A) (A) (A) (A)
                 (A) (A)
 The electronic state is 1-A.
 Alpha  occ. eigenvalues --  -38.46786 -38.46289 -38.45801 -38.44965  -2.22462
 Alpha  occ. eigenvalues --   -2.21960  -2.21489  -2.20654  -1.16146  -1.16132
 Alpha  occ. eigenvalues --   -1.16081  -1.15644  -1.15617  -1.15611  -1.15174
 Alpha  occ. eigenvalues --   -1.15159  -1.15116  -1.14336  -1.14328  -1.14299
 Alpha  occ. eigenvalues --   -0.13310  -0.10422
 Alpha virt. eigenvalues --   -0.08576  -0.07112  -0.02798  -0.02650  -0.02335
 Alpha virt. eigenvalues --   -0.01917  -0.01514  -0.00703  -0.00442  -0.00284
 Alpha virt. eigenvalues --    0.00267   0.00283   0.00359   0.00569   0.01253
 Alpha virt. eigenvalues --    0.01283   0.01485   0.01602   0.01618   0.01659
 Alpha virt. eigenvalues --    0.01960   0.02139   0.02244   0.02333   0.02498
 Alpha virt. eigenvalues --    0.02702   0.02831   0.02947   0.03200   0.03390
 Alpha virt. eigenvalues --    0.06336   0.06964   0.07221   0.07799   0.07984
 Alpha virt. eigenvalues --    0.08143   0.08319   0.08483   0.08717   0.08770
 Alpha virt. eigenvalues --    0.09631   0.09846   0.10726   0.11784   0.12145
 Alpha virt. eigenvalues --    0.12471   0.31009   0.31543   0.31979   0.33148
 Alpha virt. eigenvalues --    0.33336   0.34010   0.34070   0.34124   0.34537
 Alpha virt. eigenvalues --    0.35248   0.35272   0.35504   0.35654   0.35966
 Alpha virt. eigenvalues --    0.36125   0.36425   0.36806   0.37198   0.37935
 Alpha virt. eigenvalues --    0.39898   0.42435   0.42663   0.42884   0.43540
 Alpha virt. eigenvalues --    0.43732   0.43851   0.45712   0.46325   0.47042
 Alpha virt. eigenvalues --    0.47263   0.48644   0.49253   2.00840   2.02149
 Alpha virt. eigenvalues --    2.02571   2.05082   4.41659   4.42098   4.42272
 Alpha virt. eigenvalues --    4.42582   4.43188   4.43398   4.43544   4.44026
 Alpha virt. eigenvalues --    4.45140   4.45659   4.46112   4.46821  96.19977
 Alpha virt. eigenvalues --   96.21451  96.21953  96.24849
          Condensed to atoms (all electrons):
               1          2          3          4
     1  Na  10.827934   0.296380  -0.064538  -0.133186
     2  Na   0.296380  10.833230  -0.073370  -0.094435
     3  Na  -0.064538  -0.073370  10.979858   0.198696
     4  Na  -0.133186  -0.094435   0.198696  11.099885
 Mulliken charges:
               1
     1  Na   0.073410
     2  Na   0.038195
     3  Na  -0.040646
     4  Na  -0.070959
 Sum of Mulliken charges =  -0.00000
 Mulliken charges with hydrogens summed into heavy atoms:
               1
     1  Na   0.073410
     2  Na   0.038195
     3  Na  -0.040646
     4  Na  -0.070959
 Electronic spatial extent (au):  <R**2>=           1950.1135
 Charge=             -0.0000 electrons
 Dipole moment (field-independent basis, Debye):
    X=             -1.6853    Y=             -0.7010    Z=             -0.3538  Tot=              1.8592
 Quadrupole moment (field-independent basis, Debye-Ang):
   XX=            -46.8532   YY=            -37.0421   ZZ=            -41.3555
   XY=            -10.6466   XZ=             -3.3437   YZ=              2.6437
 Traceless Quadrupole moment (field-independent basis, Debye-Ang):
   XX=             -5.1030   YY=              4.7082   ZZ=              0.3947
   XY=            -10.6466   XZ=             -3.3437   YZ=              2.6437
 Octapole moment (field-independent basis, Debye-Ang**2):
  XXX=            -44.8425  YYY=            -12.4370  ZZZ=             -1.7442  XYY=             -6.4291
  XXY=              5.4091  XXZ=             23.3794  XZZ=            -15.0446  YZZ=             -4.8335
  YYZ=            -19.3733  XYZ=             -1.1375
 Hexadecapole moment (field-independent basis, Debye-Ang**3):
 XXXX=          -2117.9008 YYYY=          -1085.6654 ZZZZ=           -429.9665 XXXY=           -116.9198
 XXXZ=            -60.3322 YYYX=            -93.9889 YYYZ=             27.4159 ZZZX=            -31.1884
 ZZZY=             21.7824 XXYY=           -602.1580 XXZZ=           -416.2651 YYZZ=           -252.3244
 XXYZ=              9.1578 YYXZ=              1.2550 ZZXY=            -24.7881
 N-N= 7.154824908300D+01 E-N=-1.701762311113D+03  KE= 6.471951700425D+02
 No NMR shielding tensors so no spin-rotation constants.
 Leave Link  601 at Sat Oct  7 02:08:47 2023, MaxMem=  1610612736 cpu:               8.5 elap:               4.2
 (Enter /home/sekinelabo/g16/l701.exe)
 ... and contract with generalized density number  0.
 Compute integral first derivatives.
 Leave Link  701 at Sat Oct  7 02:08:51 2023, MaxMem=  1610612736 cpu:               6.7 elap:               3.4
 (Enter /home/sekinelabo/g16/l702.exe)
 L702 exits ... SP integral derivatives will be done elsewhere.
 Leave Link  702 at Sat Oct  7 02:08:51 2023, MaxMem=  1610612736 cpu:               0.8 elap:               0.4
 (Enter /home/sekinelabo/g16/l703.exe)
 Integral derivatives from FoFJK, PRISM(SPDF).
 Compute integral first derivatives, UseDBF=F ICtDFT=           0.
 Calling FoFJK, ICntrl=      2127 FMM=F ISym2X=0 I1Cent= 0 IOpClX= 0 NMat=1 NMatS=1 NMatT=0.
 FoFJK:  IHMeth= 1 ICntrl=    2127 DoSepK=F KAlg= 0 I1Cent=           0 FoldK=F
 IRaf=         0 NMat=       1 IRICut=       1 DoRegI=T DoRafI=F ISym2E= 0 IDoP0=0 IntGTp=1.
 FoFCou: FMM=F IPFlag=           0 FMFlag=      100000 FMFlg1=         800
         NFxFlg=           0 DoJE=F BraDBF=F KetDBF=F FulRan=T
         wScrn=  0.000000 ICntrl=      2127 IOpCl=  0 I1Cent=           0 NGrid=           0
         NMat0=    1 NMatS0=      1 NMatT0=    0 NMatD0=    1 NMtDS0=    0 NMtDT0=    0
 Symmetry not used in FoFCou.
 Leave Link  703 at Sat Oct  7 02:08:57 2023, MaxMem=  1610612736 cpu:              12.6 elap:               6.3
 (Enter /home/sekinelabo/g16/l716.exe)
 Dipole        =-6.63031435D-01-2.75782010D-01-1.39181498D-01
 ***** Axes restored to original set *****
 -------------------------------------------------------------------
 Center     Atomic                   Forces (Hartrees/Bohr)
 Number     Number              X              Y              Z
 -------------------------------------------------------------------
      1       11          -0.007123677    0.000792970    0.005146776
      2       11           0.006955996    0.000358556   -0.004032821
      3       11           0.001474318   -0.003846562   -0.004148799
      4       11          -0.001306637    0.002695035    0.003034844
 -------------------------------------------------------------------
 Cartesian Forces:  Max     0.007123677 RMS     0.004031190
 Z-matrix is all fixed cartesians, so copy forces.
 Force constants in Cartesian coordinates: 
                1             2             3             4             5 
      1  0.100000D+01
      2  0.000000D+00  0.100000D+01
      3  0.000000D+00  0.000000D+00  0.100000D+01
      4  0.000000D+00  0.000000D+00  0.000000D+00  0.100000D+01
      5  0.000000D+00  0.000000D+00  0.000000D+00  0.000000D+00  0.100000D+01
      6  0.000000D+00  0.000000D+00  0.000000D+00  0.000000D+00  0.000000D+00
      7  0.000000D+00  0.000000D+00  0.000000D+00  0.000000D+00  0.000000D+00
      8  0.000000D+00  0.000000D+00  0.000000D+00  0.000000D+00  0.000000D+00
      9  0.000000D+00  0.000000D+00  0.000000D+00  0.000000D+00  0.000000D+00
     10  0.000000D+00  0.000000D+00  0.000000D+00  0.000000D+00  0.000000D+00
     11  0.000000D+00  0.000000D+00  0.000000D+00  0.000000D+00  0.000000D+00
     12  0.000000D+00  0.000000D+00  0.000000D+00  0.000000D+00  0.000000D+00
                6             7             8             9            10 
      6  0.100000D+01
      7  0.000000D+00  0.100000D+01
      8  0.000000D+00  0.000000D+00  0.100000D+01
      9  0.000000D+00  0.000000D+00  0.000000D+00  0.100000D+01
     10  0.000000D+00  0.000000D+00  0.000000D+00  0.000000D+00  0.100000D+01
     11  0.000000D+00  0.000000D+00  0.000000D+00  0.000000D+00  0.000000D+00
     12  0.000000D+00  0.000000D+00  0.000000D+00  0.000000D+00  0.000000D+00
               11            12 
     11  0.100000D+01
     12  0.000000D+00  0.100000D+01
 Leave Link  716 at Sat Oct  7 02:08:58 2023, MaxMem=  1610612736 cpu:               0.7 elap:               0.4
 (Enter /home/sekinelabo/g16/l103.exe)

 GradGradGradGradGradGradGradGradGradGradGradGradGradGradGradGradGradGrad
 Berny optimization.
 Search for a local minimum.
 Step number   1 out of a maximum of    2
 All quantities printed in internal units (Hartrees-Bohrs-Radians)
 Second derivative matrix not updated -- first step.
 The second derivative matrix:
                          X1        Y1        Z1        X2        Y2
           X1           1.00000
           Y1           0.00000   1.00000
           Z1           0.00000  -0.00000   1.00000
           X2           0.00000   0.00000   0.00000   1.00000
           Y2           0.00000   0.00000   0.00000   0.00000   1.00000
           Z2           0.00000   0.00000   0.00000   0.00000  -0.00000
           X3           0.00000   0.00000   0.00000   0.00000   0.00000
           Y3           0.00000   0.00000   0.00000   0.00000   0.00000
           Z3           0.00000   0.00000   0.00000   0.00000   0.00000
           X4           0.00000   0.00000   0.00000   0.00000   0.00000
           Y4           0.00000   0.00000   0.00000   0.00000   0.00000
           Z4           0.00000   0.00000   0.00000   0.00000   0.00000
                          Z2        X3        Y3        Z3        X4
           Z2           1.00000
           X3           0.00000   1.00000
           Y3           0.00000   0.00000   1.00000
           Z3           0.00000   0.00000  -0.00000   1.00000
           X4           0.00000   0.00000   0.00000   0.00000   1.00000
           Y4           0.00000   0.00000   0.00000   0.00000   0.00000
           Z4           0.00000   0.00000   0.00000   0.00000   0.00000
                          Y4        Z4
           Y4           1.00000
           Z4          -0.00000   1.00000
 ITU=  0
     Eigenvalues ---    1.00000   1.00000   1.00000   1.00000   1.00000
     Eigenvalues ---    1.00000   1.00000   1.00000   1.00000   1.00000
     Eigenvalues ---    1.00000   1.00000
 Angle between quadratic step and forces=   0.00 degrees.
 Linear search not attempted -- first point.
 B after Tr=     0.000000   -0.000000   -0.000000
         Rot=    1.000000    0.000000    0.000000   -0.000000 Ang=   0.00 deg.
 Variable       Old X    -DE/DX   Delta X   Delta X   Delta X     New X
                                 (Linear)    (Quad)   (Total)
    X1       -0.00000  -0.00712   0.00000  -0.00712  -0.00712  -0.00712
    Y1        0.00000   0.00079   0.00000   0.00079   0.00079   0.00079
    Z1        0.00000   0.00515   0.00000   0.00515   0.00515   0.00515
    X2       -6.65123   0.00696   0.00000   0.00696   0.00696  -6.64427
    Y2        0.00000   0.00036   0.00000   0.00036   0.00036   0.00036
    Z2        4.71096  -0.00403   0.00000  -0.00403  -0.00403   4.70693
    X3        0.00000   0.00147   0.00000   0.00147   0.00147   0.00147
    Y3       -0.00000  -0.00385   0.00000  -0.00385  -0.00385  -0.00385
    Z3       10.44490  -0.00415   0.00000  -0.00415  -0.00415  10.44075
    X4        4.76400  -0.00131   0.00000  -0.00131  -0.00131   4.76269
    Y4       -8.00127   0.00270   0.00000   0.00270   0.00270  -7.99857
    Z4        5.27078   0.00303   0.00000   0.00303   0.00303   5.27382
         Item               Value     Threshold  Converged?
 Maximum Force            0.007124     0.000450     NO 
 RMS     Force            0.004031     0.000300     NO 
 Maximum Displacement     0.007124     0.001800     NO 
 RMS     Displacement     0.004031     0.001200     NO 
 Predicted change in Energy=-9.750298D-05
 GradGradGradGradGradGradGradGradGradGradGradGradGradGradGradGradGradGrad

 Leave Link  103 at Sat Oct  7 02:08:58 2023, MaxMem=  1610612736 cpu:               0.7 elap:               0.4
 (Enter /home/sekinelabo/g16/l9999.exe)
 1\1\GINC-SEKINELABO-XA7R-R37\Force\RB3LYP\6-311+G(d)\Na4\SEKINELABO\07
 -Oct-2023\0\\#p B3LYP/6-311+g(d) force\\\0,1\Na,0.,0.,0.\Na,-3.5196766
 968,0.,2.4929341956\Na,0.,0.,5.5272023311\Na,2.5209976036,-4.234087597
 8,2.7891786487\\Version=ES64L-G16RevB.01\State=1-A\HF=-649.1543875\RMS
 D=6.149e-09\RMSF=4.031e-03\Dipole=-0.4155577,0.5038027,-0.3294427\Quad
 rupole=0.8845114,-3.2311457,2.3466343,1.8387611,-7.6444067,3.9852566\P
 G=C01 [X(Na4)]\\@


 ALL THINGS ARE POSSIBLE EXCEPT SKIING THROUGH A REVOLVING DOOR.
 Job cpu time:       0 days  0 hours  4 minutes 28.1 seconds.
 Elapsed time:       0 days  0 hours  2 minutes 19.5 seconds.
 File lengths (MBytes):  RWF=     10 Int=      0 D2E=      0 Chk=      2 Scr=      1
 Normal termination of Gaussian 16 at Sat Oct  7 02:08:59 2023.
