 Entering Gaussian System, Link 0=g16
 Initial command:
 /home/sekinelabo/g16/l1.exe "/home/sekinelabo/g16temp/Gau-708791.inp" -scrdir="/home/sekinelabo/g16temp/"
 Entering Link 1 = /home/sekinelabo/g16/l1.exe PID=    708814.
  
 Copyright (c) 1988-2017, Gaussian, Inc.  All Rights Reserved.
  
 This is part of the Gaussian(R) 16 program.  It is based on
 the Gaussian(R) 09 system (copyright 2009, Gaussian, Inc.),
 the Gaussian(R) 03 system (copyright 2003, Gaussian, Inc.),
 the Gaussian(R) 98 system (copyright 1998, Gaussian, Inc.),
 the Gaussian(R) 94 system (copyright 1995, Gaussian, Inc.),
 the Gaussian 92(TM) system (copyright 1992, Gaussian, Inc.),
 the Gaussian 90(TM) system (copyright 1990, Gaussian, Inc.),
 the Gaussian 88(TM) system (copyright 1988, Gaussian, Inc.),
 the Gaussian 86(TM) system (copyright 1986, Carnegie Mellon
 University), and the Gaussian 82(TM) system (copyright 1983,
 Carnegie Mellon University). Gaussian is a federally registered
 trademark of Gaussian, Inc.
  
 This software contains proprietary and confidential information,
 including trade secrets, belonging to Gaussian, Inc.
  
 This software is provided under written license and may be
 used, copied, transmitted, or stored only in accord with that
 written license.
  
 The following legend is applicable only to US Government
 contracts under FAR:
  
                    RESTRICTED RIGHTS LEGEND
  
 Use, reproduction and disclosure by the US Government is
 subject to restrictions as set forth in subparagraphs (a)
 and (c) of the Commercial Computer Software - Restricted
 Rights clause in FAR 52.227-19.
  
 Gaussian, Inc.
 340 Quinnipiac St., Bldg. 40, Wallingford CT 06492
  
  
 ---------------------------------------------------------------
 Warning -- This program may not be used in any manner that
 competes with the business of Gaussian, Inc. or will provide
 assistance to any competitor of Gaussian, Inc.  The licensee
 of this program is prohibited from giving any competitor of
 Gaussian, Inc. access to this program.  By using this program,
 the user acknowledges that Gaussian, Inc. is engaged in the
 business of creating and licensing software in the field of
 computational chemistry and represents and warrants to the
 licensee that it is not a competitor of Gaussian, Inc. and that
 it will not use this program in any manner prohibited above.
 ---------------------------------------------------------------
  

 Cite this work as:
 Gaussian 16, Revision B.01,
 M. J. Frisch, G. W. Trucks, H. B. Schlegel, G. E. Scuseria, 
 M. A. Robb, J. R. Cheeseman, G. Scalmani, V. Barone, 
 G. A. Petersson, H. Nakatsuji, X. Li, M. Caricato, A. V. Marenich, 
 J. Bloino, B. G. Janesko, R. Gomperts, B. Mennucci, H. P. Hratchian, 
 J. V. Ortiz, A. F. Izmaylov, J. L. Sonnenberg, D. Williams-Young, 
 F. Ding, F. Lipparini, F. Egidi, J. Goings, B. Peng, A. Petrone, 
 T. Henderson, D. Ranasinghe, V. G. Zakrzewski, J. Gao, N. Rega, 
 G. Zheng, W. Liang, M. Hada, M. Ehara, K. Toyota, R. Fukuda, 
 J. Hasegawa, M. Ishida, T. Nakajima, Y. Honda, O. Kitao, H. Nakai, 
 T. Vreven, K. Throssell, J. A. Montgomery, Jr., J. E. Peralta, 
 F. Ogliaro, M. J. Bearpark, J. J. Heyd, E. N. Brothers, K. N. Kudin, 
 V. N. Staroverov, T. A. Keith, R. Kobayashi, J. Normand, 
 K. Raghavachari, A. P. Rendell, J. C. Burant, S. S. Iyengar, 
 J. Tomasi, M. Cossi, J. M. Millam, M. Klene, C. Adamo, R. Cammi, 
 J. W. Ochterski, R. L. Martin, K. Morokuma, O. Farkas, 
 J. B. Foresman, and D. J. Fox, Gaussian, Inc., Wallingford CT, 2016.
 
 ******************************************
 Gaussian 16:  ES64L-G16RevB.01 20-Dec-2017
                 6-Oct-2023 
 ******************************************
 %NProcShared=16
 Will use up to   16 processors via shared memory.
 %mem=12GB
 %Chk=checkpoint.chk
 -------------------------
 #p B3LYP/6-311+g(d) force
 -------------------------
 1/10=7,30=1,38=1/1,3;
 2/12=2,17=6,18=5,40=1/2;
 3/5=4,6=6,7=11,11=2,25=1,30=1,71=1,74=-5/1,2,3;
 4//1;
 5/5=2,38=5/2;
 6/7=2,8=2,9=2,10=2,28=1/1;
 7/29=1/1,2,3,16;
 1/10=7,30=1/3;
 99//99;
 Leave Link    1 at Fri Oct  6 21:59:34 2023, MaxMem=  1610612736 cpu:               0.6 elap:               0.2
 (Enter /home/sekinelabo/g16/l101.exe)


 Symbolic Z-matrix:
 Charge =  0 Multiplicity = 1
 Na                    0.        0.        0. 
 Na                   -2.90549   0.        3.30009 
 Na                    0.        0.        3.47804 
 Na                   -1.98728  -3.3709    7.69328 
 
 ITRead=  0  0  0  0
 MicOpt= -1 -1 -1 -1
 NAtoms=      4 NQM=        4 NQMF=       0 NMMI=      0 NMMIF=      0
                NMic=       0 NMicF=      0.
                    Isotopes and Nuclear Properties:
 (Nuclear quadrupole moments (NQMom) in fm**2, nuclear magnetic moments (NMagM)
  in nuclear magnetons)

  Atom         1           2           3           4
 IAtWgt=          23          23          23          23
 AtmWgt=  22.9897697  22.9897697  22.9897697  22.9897697
 NucSpn=           3           3           3           3
 AtZEff=  -0.0000000  -0.0000000  -0.0000000  -0.0000000
 NQMom=   10.4000000  10.4000000  10.4000000  10.4000000
 NMagM=    2.2175200   2.2175200   2.2175200   2.2175200
 AtZNuc=  11.0000000  11.0000000  11.0000000  11.0000000
 Leave Link  101 at Fri Oct  6 21:59:35 2023, MaxMem=  1610612736 cpu:               2.1 elap:               0.9
 (Enter /home/sekinelabo/g16/l103.exe)

 GradGradGradGradGradGradGradGradGradGradGradGradGradGradGradGradGradGrad
 Berny optimization.
 Initialization pass.
 Trust Radius=3.00D-01 FncErr=1.00D-07 GrdErr=1.00D-07 EigMax=2.50D+02 EigMin=1.00D-04
 Number of steps in this run=      2 maximum allowed number of steps=      2.
 GradGradGradGradGradGradGradGradGradGradGradGradGradGradGradGradGradGrad

 Leave Link  103 at Fri Oct  6 21:59:35 2023, MaxMem=  1610612736 cpu:               0.5 elap:               0.3
 (Enter /home/sekinelabo/g16/l202.exe)
                          Input orientation:                          
 ---------------------------------------------------------------------
 Center     Atomic      Atomic             Coordinates (Angstroms)
 Number     Number       Type             X           Y           Z
 ---------------------------------------------------------------------
      1         11           0        0.000000    0.000000    0.000000
      2         11           0       -2.905488    0.000000    3.300087
      3         11           0        0.000000    0.000000    3.478039
      4         11           0       -1.987277   -3.370901    7.693276
 ---------------------------------------------------------------------
                    Distance matrix (angstroms):
                    1          2          3          4
     1  Na   0.000000
     2  Na   4.396866   0.000000
     3  Na   3.478039   2.910933   0.000000
     4  Na   8.631265   5.613038   5.751562   0.000000
 Stoichiometry    Na4
 Framework group  C1[X(Na4)]
 Deg. of freedom     6
 Full point group                 C1      NOp   1
 Largest Abelian subgroup         C1      NOp   1
 Largest concise Abelian subgroup C1      NOp   1
                         Standard orientation:                         
 ---------------------------------------------------------------------
 Center     Atomic      Atomic             Coordinates (Angstroms)
 Number     Number       Type             X           Y           Z
 ---------------------------------------------------------------------
      1         11           0        3.808567   -0.554677   -0.694531
      2         11           0        0.246697    1.887713    0.130239
      3         11           0        0.761759   -0.855820    0.955629
      4         11           0       -4.817023   -0.477216   -0.391337
 ---------------------------------------------------------------------
 Rotational constants (GHZ):           3.4364219           0.5507295           0.5090807
 Leave Link  202 at Fri Oct  6 21:59:36 2023, MaxMem=  1610612736 cpu:               1.1 elap:               0.7
 (Enter /home/sekinelabo/g16/l301.exe)
 Standard basis: 6-311+G(d) (5D, 7F)
 Ernie: Thresh=  0.10000D-02 Tol=  0.10000D-05 Strict=F.
 There are   124 symmetry adapted cartesian basis functions of A   symmetry.
 There are   120 symmetry adapted basis functions of A   symmetry.
   120 basis functions,   200 primitive gaussians,   124 cartesian basis functions
    22 alpha electrons       22 beta electrons
       nuclear repulsion energy        84.9277923589 Hartrees.
 IExCor=  402 DFT=T Ex+Corr=B3LYP ExCW=0 ScaHFX=  0.200000
 ScaDFX=  0.800000  0.720000  1.000000  0.810000 ScalE2=  1.000000  1.000000
 IRadAn=      5 IRanWt=     -1 IRanGd=            0 ICorTp=0 IEmpDi=  4
 NAtoms=    4 NActive=    4 NUniq=    4 SFac= 1.00D+00 NAtFMM=   60 NAOKFM=F Big=F
 Integral buffers will be    131072 words long.
 Raffenetti 2 integral format.
 Two-electron integral symmetry is turned on.
 Leave Link  301 at Fri Oct  6 21:59:36 2023, MaxMem=  1610612736 cpu:               0.7 elap:               0.4
 (Enter /home/sekinelabo/g16/l302.exe)
 NPDir=0 NMtPBC=     1 NCelOv=     1 NCel=       1 NClECP=     1 NCelD=      1
         NCelK=      1 NCelE2=     1 NClLst=     1 CellRange=     0.0.
 One-electron integrals computed using PRISM.
 One-electron integral symmetry used in STVInt
 NBasis=   120 RedAO= T EigKep=  6.72D-05  NBF=   120
 NBsUse=   120 1.00D-06 EigRej= -1.00D+00 NBFU=   120
 Precomputing XC quadrature grid using
 IXCGrd= 4 IRadAn=           5 IRanWt=          -1 IRanGd=           0 AccXCQ= 0.00D+00.
 Generated NRdTot=       0 NPtTot=           0 NUsed=           0 NTot=          32
 NSgBfM=   116   116   116   116   116 MxSgAt=     4 MxSgA2=     4.
 Leave Link  302 at Fri Oct  6 21:59:49 2023, MaxMem=  1610612736 cpu:              20.1 elap:              12.6
 (Enter /home/sekinelabo/g16/l303.exe)
 DipDrv:  MaxL=1.
 Leave Link  303 at Fri Oct  6 21:59:51 2023, MaxMem=  1610612736 cpu:               2.7 elap:               1.6
 (Enter /home/sekinelabo/g16/l401.exe)
 ExpMin= 7.60D-03 ExpMax= 3.62D+04 ExpMxC= 1.21D+03 IAcc=3 IRadAn=         5 AccDes= 0.00D+00
 Harris functional with IExCor=  402 and IRadAn=       5 diagonalized for initial guess.
 HarFok:  IExCor=  402 AccDes= 0.00D+00 IRadAn=         5 IDoV= 1 UseB2=F ITyADJ=14
 ICtDFT=  3500011 ScaDFX=  1.000000  1.000000  1.000000  1.000000
 FoFCou: FMM=F IPFlag=           0 FMFlag=      100000 FMFlg1=           0
         NFxFlg=           0 DoJE=T BraDBF=F KetDBF=T FulRan=T
         wScrn=  0.000000 ICntrl=       500 IOpCl=  0 I1Cent=   200000004 NGrid=           0
         NMat0=    1 NMatS0=      1 NMatT0=    0 NMatD0=    1 NMtDS0=    0 NMtDT0=    0
 Petite list used in FoFCou.
 Harris En= -649.052597662146    
 JPrj=0 DoOrth=F DoCkMO=F.
 Leave Link  401 at Fri Oct  6 22:00:00 2023, MaxMem=  1610612736 cpu:              14.9 elap:               9.2
 (Enter /home/sekinelabo/g16/l502.exe)
 Keep R1 ints in memory in canonical form, NReq=41581762.
 FoFCou: FMM=F IPFlag=           0 FMFlag=           0 FMFlg1=           0
         NFxFlg=           0 DoJE=F BraDBF=F KetDBF=F FulRan=T
         wScrn=  0.000000 ICntrl=       600 IOpCl=  0 I1Cent=           0 NGrid=           0
         NMat0=    1 NMatS0=   7260 NMatT0=    0 NMatD0=    1 NMtDS0=    0 NMtDT0=    0
 Symmetry not used in FoFCou.
 Two-electron integral symmetry not used.
 Closed shell SCF:
 Using DIIS extrapolation, IDIIS=  1040.
 NGot=  1610612736 LenX=  1584221380 LenY=  1584205563
 Requested convergence on RMS density matrix=1.00D-08 within 128 cycles.
 Requested convergence on MAX density matrix=1.00D-06.
 Requested convergence on             energy=1.00D-06.
 No special actions if energy rises.

 Cycle   1  Pass 1  IDiag  1:
 E= -649.160776948796    
 DIIS: error= 1.33D-02 at cycle   1 NSaved=   1.
 NSaved= 1 IEnMin= 1 EnMin= -649.160776948796     IErMin= 1 ErrMin= 1.33D-02
 ErrMax= 1.33D-02  0.00D+00 EMaxC= 1.00D-01 BMatC= 2.70D-02 BMatP= 2.70D-02
 IDIUse=3 WtCom= 8.67D-01 WtEn= 1.33D-01
 Coeff-Com:  0.100D+01
 Coeff-En:   0.100D+01
 Coeff:      0.100D+01
 Gap=     0.013 Goal=   None    Shift=    0.000
 GapD=    0.013 DampG=0.250 DampE=0.500 DampFc=0.2500 IDamp=-1.
 Damping current iteration by 2.50D-01
 RMSDP=6.13D-03 MaxDP=3.12D-01              OVMax= 6.03D-01

 Cycle   2  Pass 1  IDiag  1:
 E= -649.165486184367     Delta-E=       -0.004709235571 Rises=F Damp=T
 DIIS: error= 9.68D-03 at cycle   2 NSaved=   2.
 NSaved= 2 IEnMin= 2 EnMin= -649.165486184367     IErMin= 2 ErrMin= 9.68D-03
 ErrMax= 9.68D-03  0.00D+00 EMaxC= 1.00D-01 BMatC= 1.02D-02 BMatP= 2.70D-02
 IDIUse=3 WtCom= 9.03D-01 WtEn= 9.68D-02
 Coeff-Com: -0.102D+01 0.202D+01
 Coeff-En:   0.193D+00 0.807D+00
 Coeff:     -0.905D+00 0.190D+01
 Gap=     0.014 Goal=   None    Shift=    0.000
 RMSDP=5.41D-03 MaxDP=2.92D-01 DE=-4.71D-03 OVMax= 7.56D-01

 Cycle   3  Pass 1  IDiag  1:
 E= -649.083221623374     Delta-E=        0.082264560993 Rises=F Damp=F
 DIIS: error= 1.32D-02 at cycle   3 NSaved=   3.
 NSaved= 3 IEnMin= 2 EnMin= -649.165486184367     IErMin= 2 ErrMin= 9.68D-03
 ErrMax= 1.32D-02  0.00D+00 EMaxC= 1.00D-01 BMatC= 8.81D-03 BMatP= 1.02D-02
 IDIUse=3 WtCom= 8.68D-01 WtEn= 1.32D-01
 Rare condition: small coef for last iteration:  0.000D+00
 Coeff-Com: -0.715D+00 0.133D+01 0.388D+00
 Coeff-En:   0.134D+00 0.843D+00 0.222D-01
 Coeff:     -0.715D+00 0.133D+01 0.388D+00
 Gap=     0.018 Goal=   None    Shift=    0.000
 RMSDP=7.54D-03 MaxDP=4.95D-01 DE= 8.23D-02 OVMax= 7.91D-01

 Cycle   4  Pass 1  IDiag  1:
 E= -649.127949251778     Delta-E=       -0.044727628403 Rises=F Damp=F
 DIIS: error= 8.08D-03 at cycle   4 NSaved=   4.
 NSaved= 4 IEnMin= 2 EnMin= -649.165486184367     IErMin= 4 ErrMin= 8.08D-03
 ErrMax= 8.08D-03  0.00D+00 EMaxC= 1.00D-01 BMatC= 4.81D-03 BMatP= 8.81D-03
 IDIUse=3 WtCom= 9.19D-01 WtEn= 8.08D-02
 EnCoef did   100 forward-backward iterations
 Coeff-Com: -0.130D+00 0.307D+00 0.372D+00 0.450D+00
 Coeff-En:   0.669D+00 0.594D-01 0.419D-02 0.268D+00
 Coeff:     -0.651D-01 0.287D+00 0.342D+00 0.435D+00
 Gap=     0.016 Goal=   None    Shift=    0.000
 RMSDP=3.72D-03 MaxDP=1.75D-01 DE=-4.47D-02 OVMax= 4.12D-01

 Cycle   5  Pass 1  IDiag  1:
 E= -649.178089693786     Delta-E=       -0.050140442009 Rises=F Damp=F
 DIIS: error= 8.15D-04 at cycle   5 NSaved=   5.
 NSaved= 5 IEnMin= 5 EnMin= -649.178089693786     IErMin= 5 ErrMin= 8.15D-04
 ErrMax= 8.15D-04  0.00D+00 EMaxC= 1.00D-01 BMatC= 1.24D-04 BMatP= 4.81D-03
 IDIUse=3 WtCom= 9.92D-01 WtEn= 8.15D-03
 Coeff-Com:  0.103D+00-0.129D+00-0.217D-01 0.107D+00 0.941D+00
 Coeff-En:   0.000D+00 0.000D+00 0.000D+00 0.000D+00 0.100D+01
 Coeff:      0.102D+00-0.128D+00-0.215D-01 0.106D+00 0.942D+00
 Gap=     0.027 Goal=   None    Shift=    0.000
 RMSDP=6.54D-04 MaxDP=1.89D-02 DE=-5.01D-02 OVMax= 2.05D-02

 Cycle   6  Pass 1  IDiag  1:
 E= -649.178450686650     Delta-E=       -0.000360992864 Rises=F Damp=F
 DIIS: error= 5.59D-04 at cycle   6 NSaved=   6.
 NSaved= 6 IEnMin= 6 EnMin= -649.178450686650     IErMin= 6 ErrMin= 5.59D-04
 ErrMax= 5.59D-04  0.00D+00 EMaxC= 1.00D-01 BMatC= 3.53D-05 BMatP= 1.24D-04
 IDIUse=3 WtCom= 9.94D-01 WtEn= 5.59D-03
 Coeff-Com:  0.141D-01-0.190D-01-0.258D-01 0.504D-01 0.255D+00 0.725D+00
 Coeff-En:   0.000D+00 0.000D+00 0.000D+00 0.000D+00 0.000D+00 0.100D+01
 Coeff:      0.140D-01-0.189D-01-0.256D-01 0.501D-01 0.254D+00 0.727D+00
 Gap=     0.028 Goal=   None    Shift=    0.000
 RMSDP=2.29D-04 MaxDP=9.72D-03 DE=-3.61D-04 OVMax= 1.69D-02

 Cycle   7  Pass 1  IDiag  1:
 E= -649.178200357685     Delta-E=        0.000250328965 Rises=F Damp=F
 DIIS: error= 8.47D-04 at cycle   7 NSaved=   7.
 NSaved= 7 IEnMin= 6 EnMin= -649.178450686650     IErMin= 6 ErrMin= 5.59D-04
 ErrMax= 8.47D-04  0.00D+00 EMaxC= 1.00D-01 BMatC= 5.24D-05 BMatP= 3.53D-05
 IDIUse=3 WtCom= 9.94D-01 WtEn= 5.59D-03
 Rare condition: small coef for last iteration:  0.000D+00
 Coeff-Com: -0.295D-01 0.404D-01-0.207D-01 0.481D-01-0.277D-01 0.378D+00
 Coeff-Com:  0.611D+00
 Coeff-En:   0.000D+00 0.000D+00 0.000D+00 0.000D+00 0.000D+00 0.000D+00
 Coeff-En:   0.100D+01
 Coeff:     -0.295D-01 0.404D-01-0.207D-01 0.481D-01-0.277D-01 0.378D+00
 Coeff:      0.611D+00
 Gap=     0.028 Goal=   None    Shift=    0.000
 RMSDP=8.68D-05 MaxDP=4.99D-03 DE= 2.50D-04 OVMax= 8.36D-03

 Cycle   8  Pass 1  IDiag  1:
 E= -649.178373347279     Delta-E=       -0.000172989594 Rises=F Damp=F
 DIIS: error= 6.94D-04 at cycle   8 NSaved=   8.
 NSaved= 8 IEnMin= 6 EnMin= -649.178450686650     IErMin= 6 ErrMin= 5.59D-04
 ErrMax= 6.94D-04  0.00D+00 EMaxC= 1.00D-01 BMatC= 3.08D-05 BMatP= 3.53D-05
 IDIUse=3 WtCom= 9.94D-01 WtEn= 5.59D-03
 Coeff-Com: -0.370D-01 0.501D-01-0.117D-01 0.419D-01-0.121D+00 0.218D-01
 Coeff-Com: -0.130D+00 0.119D+01
 Coeff-En:   0.000D+00 0.000D+00 0.000D+00 0.000D+00 0.000D+00 0.000D+00
 Coeff-En:   0.000D+00 0.100D+01
 Coeff:     -0.368D-01 0.499D-01-0.117D-01 0.416D-01-0.121D+00 0.217D-01
 Coeff:     -0.129D+00 0.118D+01
 Gap=     0.028 Goal=   None    Shift=    0.000
 RMSDP=9.56D-05 MaxDP=4.58D-03 DE=-1.73D-04 OVMax= 9.71D-03

 Cycle   9  Pass 1  IDiag  1:
 E= -649.178529091149     Delta-E=       -0.000155743870 Rises=F Damp=F
 DIIS: error= 4.05D-04 at cycle   9 NSaved=   9.
 NSaved= 9 IEnMin= 9 EnMin= -649.178529091149     IErMin= 9 ErrMin= 4.05D-04
 ErrMax= 4.05D-04  0.00D+00 EMaxC= 1.00D-01 BMatC= 1.29D-05 BMatP= 3.08D-05
 IDIUse=3 WtCom= 9.96D-01 WtEn= 4.05D-03
 Coeff-Com: -0.195D-01 0.264D-01-0.126D-02 0.172D-01-0.750D-01-0.106D+00
 Coeff-Com: -0.573D+00 0.383D+00 0.135D+01
 Coeff-En:   0.000D+00 0.000D+00 0.000D+00 0.000D+00 0.000D+00 0.000D+00
 Coeff-En:   0.000D+00 0.000D+00 0.100D+01
 Coeff:     -0.195D-01 0.263D-01-0.126D-02 0.171D-01-0.747D-01-0.106D+00
 Coeff:     -0.571D+00 0.382D+00 0.135D+01
 Gap=     0.028 Goal=   None    Shift=    0.000
 RMSDP=1.05D-04 MaxDP=6.13D-03 DE=-1.56D-04 OVMax= 1.17D-02

 Cycle  10  Pass 1  IDiag  1:
 E= -649.178622818072     Delta-E=       -0.000093726923 Rises=F Damp=F
 DIIS: error= 1.51D-04 at cycle  10 NSaved=  10.
 NSaved=10 IEnMin=10 EnMin= -649.178622818072     IErMin=10 ErrMin= 1.51D-04
 ErrMax= 1.51D-04  0.00D+00 EMaxC= 1.00D-01 BMatC= 1.36D-06 BMatP= 1.29D-05
 IDIUse=3 WtCom= 9.98D-01 WtEn= 1.51D-03
 Coeff-Com: -0.486D-02 0.666D-02 0.730D-03 0.570D-02-0.172D-01-0.539D-01
 Coeff-Com: -0.306D+00-0.596D-01 0.717D+00 0.711D+00
 Coeff-En:   0.000D+00 0.000D+00 0.000D+00 0.000D+00 0.000D+00 0.000D+00
 Coeff-En:   0.000D+00 0.000D+00 0.000D+00 0.100D+01
 Coeff:     -0.485D-02 0.665D-02 0.729D-03 0.569D-02-0.172D-01-0.539D-01
 Coeff:     -0.305D+00-0.595D-01 0.716D+00 0.711D+00
 Gap=     0.028 Goal=   None    Shift=    0.000
 RMSDP=4.50D-05 MaxDP=2.07D-03 DE=-9.37D-05 OVMax= 4.55D-03

 Cycle  11  Pass 1  IDiag  1:
 E= -649.178633636817     Delta-E=       -0.000010818745 Rises=F Damp=F
 DIIS: error= 2.47D-05 at cycle  11 NSaved=  11.
 NSaved=11 IEnMin=11 EnMin= -649.178633636817     IErMin=11 ErrMin= 2.47D-05
 ErrMax= 2.47D-05  0.00D+00 EMaxC= 1.00D-01 BMatC= 4.39D-08 BMatP= 1.36D-06
 IDIUse=1 WtCom= 1.00D+00 WtEn= 0.00D+00
 Coeff-Com:  0.116D-02-0.153D-02 0.214D-03 0.387D-03 0.605D-02 0.792D-02
 Coeff-Com:  0.420D-02-0.918D-01 0.998D-02 0.145D+00 0.918D+00
 Coeff:      0.116D-02-0.153D-02 0.214D-03 0.387D-03 0.605D-02 0.792D-02
 Coeff:      0.420D-02-0.918D-01 0.998D-02 0.145D+00 0.918D+00
 Gap=     0.028 Goal=   None    Shift=    0.000
 RMSDP=1.24D-05 MaxDP=5.14D-04 DE=-1.08D-05 OVMax= 1.27D-03

 Cycle  12  Pass 1  IDiag  1:
 E= -649.178633977731     Delta-E=       -0.000000340914 Rises=F Damp=F
 DIIS: error= 6.05D-06 at cycle  12 NSaved=  12.
 NSaved=12 IEnMin=12 EnMin= -649.178633977731     IErMin=12 ErrMin= 6.05D-06
 ErrMax= 6.05D-06  0.00D+00 EMaxC= 1.00D-01 BMatC= 2.22D-09 BMatP= 4.39D-08
 IDIUse=1 WtCom= 1.00D+00 WtEn= 0.00D+00
 Coeff-Com:  0.401D-03-0.532D-03-0.536D-04 0.676D-04 0.224D-02 0.389D-02
 Coeff-Com:  0.112D-01-0.109D-01-0.218D-01 0.173D-01 0.196D+00 0.802D+00
 Coeff:      0.401D-03-0.532D-03-0.536D-04 0.676D-04 0.224D-02 0.389D-02
 Coeff:      0.112D-01-0.109D-01-0.218D-01 0.173D-01 0.196D+00 0.802D+00
 Gap=     0.028 Goal=   None    Shift=    0.000
 RMSDP=3.13D-06 MaxDP=1.55D-04 DE=-3.41D-07 OVMax= 3.18D-04

 Cycle  13  Pass 1  IDiag  1:
 E= -649.178633995172     Delta-E=       -0.000000017441 Rises=F Damp=F
 DIIS: error= 2.09D-06 at cycle  13 NSaved=  13.
 NSaved=13 IEnMin=13 EnMin= -649.178633995172     IErMin=13 ErrMin= 2.09D-06
 ErrMax= 2.09D-06  0.00D+00 EMaxC= 1.00D-01 BMatC= 3.10D-10 BMatP= 2.22D-09
 IDIUse=1 WtCom= 1.00D+00 WtEn= 0.00D+00
 Coeff-Com:  0.179D-04-0.234D-04 0.609D-05-0.131D-04 0.326D-04-0.979D-03
 Coeff-Com: -0.122D-02 0.506D-02-0.396D-02-0.444D-02-0.395D-01 0.129D+00
 Coeff-Com:  0.916D+00
 Coeff:      0.179D-04-0.234D-04 0.609D-05-0.131D-04 0.326D-04-0.979D-03
 Coeff:     -0.122D-02 0.506D-02-0.396D-02-0.444D-02-0.395D-01 0.129D+00
 Coeff:      0.916D+00
 Gap=     0.028 Goal=   None    Shift=    0.000
 RMSDP=1.06D-06 MaxDP=5.55D-05 DE=-1.74D-08 OVMax= 1.08D-04

 Cycle  14  Pass 1  IDiag  1:
 E= -649.178633997731     Delta-E=       -0.000000002559 Rises=F Damp=F
 DIIS: error= 5.50D-07 at cycle  14 NSaved=  14.
 NSaved=14 IEnMin=14 EnMin= -649.178633997731     IErMin=14 ErrMin= 5.50D-07
 ErrMax= 5.50D-07  0.00D+00 EMaxC= 1.00D-01 BMatC= 1.67D-11 BMatP= 3.10D-10
 IDIUse=1 WtCom= 1.00D+00 WtEn= 0.00D+00
 Coeff-Com:  0.187D-05-0.274D-05-0.243D-05 0.350D-05 0.289D-04-0.273D-03
 Coeff-Com: -0.593D-03 0.146D-02 0.115D-03-0.142D-02-0.129D-01 0.198D-01
 Coeff-Com:  0.284D+00 0.710D+00
 Coeff:      0.187D-05-0.274D-05-0.243D-05 0.350D-05 0.289D-04-0.273D-03
 Coeff:     -0.593D-03 0.146D-02 0.115D-03-0.142D-02-0.129D-01 0.198D-01
 Coeff:      0.284D+00 0.710D+00
 Gap=     0.028 Goal=   None    Shift=    0.000
 RMSDP=2.12D-07 MaxDP=1.20D-05 DE=-2.56D-09 OVMax= 2.43D-05

 Cycle  15  Pass 1  IDiag  1:
 E= -649.178633997872     Delta-E=       -0.000000000141 Rises=F Damp=F
 DIIS: error= 1.13D-07 at cycle  15 NSaved=  15.
 NSaved=15 IEnMin=15 EnMin= -649.178633997872     IErMin=15 ErrMin= 1.13D-07
 ErrMax= 1.13D-07  0.00D+00 EMaxC= 1.00D-01 BMatC= 7.57D-13 BMatP= 1.67D-11
 IDIUse=1 WtCom= 1.00D+00 WtEn= 0.00D+00
 Coeff-Com: -0.256D-05 0.338D-05-0.787D-07 0.812D-06-0.729D-05-0.142D-04
 Coeff-Com: -0.134D-03 0.786D-04 0.272D-03-0.189D-04-0.134D-02-0.864D-02
 Coeff-Com: -0.102D-01 0.200D+00 0.820D+00
 Coeff:     -0.256D-05 0.338D-05-0.787D-07 0.812D-06-0.729D-05-0.142D-04
 Coeff:     -0.134D-03 0.786D-04 0.272D-03-0.189D-04-0.134D-02-0.864D-02
 Coeff:     -0.102D-01 0.200D+00 0.820D+00
 Gap=     0.028 Goal=   None    Shift=    0.000
 RMSDP=4.52D-08 MaxDP=2.09D-06 DE=-1.41D-10 OVMax= 3.88D-06

 Cycle  16  Pass 1  IDiag  1:
 E= -649.178633997876     Delta-E=       -0.000000000004 Rises=F Damp=F
 DIIS: error= 1.02D-08 at cycle  16 NSaved=  16.
 NSaved=16 IEnMin=16 EnMin= -649.178633997876     IErMin=16 ErrMin= 1.02D-08
 ErrMax= 1.02D-08  0.00D+00 EMaxC= 1.00D-01 BMatC= 7.33D-15 BMatP= 7.57D-13
 IDIUse=1 WtCom= 1.00D+00 WtEn= 0.00D+00
 Coeff-Com:  0.193D-06-0.245D-06-0.246D-07 0.136D-06 0.192D-06 0.116D-04
 Coeff-Com:  0.270D-04-0.642D-04-0.100D-04 0.747D-04 0.443D-03-0.468D-03
 Coeff-Com: -0.103D-01-0.939D-02 0.247D-01 0.995D+00
 Coeff:      0.193D-06-0.245D-06-0.246D-07 0.136D-06 0.192D-06 0.116D-04
 Coeff:      0.270D-04-0.642D-04-0.100D-04 0.747D-04 0.443D-03-0.468D-03
 Coeff:     -0.103D-01-0.939D-02 0.247D-01 0.995D+00
 Gap=     0.028 Goal=   None    Shift=    0.000
 RMSDP=4.26D-09 MaxDP=1.89D-07 DE=-4.21D-12 OVMax= 4.00D-07

 SCF Done:  E(RB3LYP) =  -649.178633998     A.U. after   16 cycles
            NFock= 16  Conv=0.43D-08     -V/T= 2.0029
 KE= 6.472906549309D+02 PE=-1.728850085018D+03 EE= 3.474530037299D+02
 Leave Link  502 at Fri Oct  6 22:01:50 2023, MaxMem=  1610612736 cpu:             176.2 elap:             110.0
 (Enter /home/sekinelabo/g16/l601.exe)
 Copying SCF densities to generalized density rwf, IOpCl= 0 IROHF=0.

 **********************************************************************

            Population analysis using the SCF Density.

 **********************************************************************

 Orbital symmetries:
       Occupied  (A) (A) (A) (A) (A) (A) (A) (A) (A) (A) (A) (A)
                 (A) (A) (A) (A) (A) (A) (A) (A) (A) (A)
       Virtual   (A) (A) (A) (A) (A) (A) (A) (A) (A) (A) (A) (A)
                 (A) (A) (A) (A) (A) (A) (A) (A) (A) (A) (A) (A)
                 (A) (A) (A) (A) (A) (A) (A) (A) (A) (A) (A) (A)
                 (A) (A) (A) (A) (A) (A) (A) (A) (A) (A) (A) (A)
                 (A) (A) (A) (A) (A) (A) (A) (A) (A) (A) (A) (A)
                 (A) (A) (A) (A) (A) (A) (A) (A) (A) (A) (A) (A)
                 (A) (A) (A) (A) (A) (A) (A) (A) (A) (A) (A) (A)
                 (A) (A) (A) (A) (A) (A) (A) (A) (A) (A) (A) (A)
                 (A) (A)
 The electronic state is 1-A.
 Alpha  occ. eigenvalues --  -38.46167 -38.45407 -38.44759 -38.44750  -2.21946
 Alpha  occ. eigenvalues --   -2.21243  -2.20499  -2.20443  -1.15713  -1.15605
 Alpha  occ. eigenvalues --   -1.15541  -1.14942  -1.14904  -1.14824  -1.14177
 Alpha  occ. eigenvalues --   -1.14174  -1.14127  -1.14121  -1.14121  -1.14087
 Alpha  occ. eigenvalues --   -0.15240  -0.10487
 Alpha virt. eigenvalues --   -0.07731  -0.05770  -0.03422  -0.02705  -0.01762
 Alpha virt. eigenvalues --   -0.01209  -0.01050  -0.00496  -0.00436   0.00125
 Alpha virt. eigenvalues --    0.00440   0.00530   0.00842   0.01151   0.01231
 Alpha virt. eigenvalues --    0.01422   0.01590   0.01743   0.01867   0.02099
 Alpha virt. eigenvalues --    0.02104   0.02189   0.02414   0.02611   0.03006
 Alpha virt. eigenvalues --    0.03043   0.03228   0.03397   0.04320   0.04510
 Alpha virt. eigenvalues --    0.06244   0.07041   0.07146   0.07729   0.07972
 Alpha virt. eigenvalues --    0.08372   0.08603   0.08701   0.09449   0.09817
 Alpha virt. eigenvalues --    0.10055   0.10999   0.11215   0.11677   0.13171
 Alpha virt. eigenvalues --    0.15243   0.27177   0.28946   0.29395   0.30192
 Alpha virt. eigenvalues --    0.32001   0.34251   0.34524   0.35428   0.35469
 Alpha virt. eigenvalues --    0.35494   0.35647   0.35854   0.36122   0.36744
 Alpha virt. eigenvalues --    0.39200   0.41915   0.42454   0.42647   0.43039
 Alpha virt. eigenvalues --    0.43517   0.43717   0.43763   0.44881   0.45035
 Alpha virt. eigenvalues --    0.45228   0.46737   0.48456   0.49654   0.49830
 Alpha virt. eigenvalues --    0.51532   0.58518   0.74313   2.01761   2.02650
 Alpha virt. eigenvalues --    2.09088   2.14141   4.40196   4.42163   4.42898
 Alpha virt. eigenvalues --    4.43098   4.44176   4.44209   4.44249   4.45047
 Alpha virt. eigenvalues --    4.45301   4.46500   4.50813   4.67493  96.20923
 Alpha virt. eigenvalues --   96.21945  96.30003  96.36901
          Condensed to atoms (all electrons):
               1          2          3          4
     1  Na  10.953851  -0.053991   0.118217  -0.091490
     2  Na  -0.053991  10.607188   0.319528   0.098593
     3  Na   0.118217   0.319528  10.536795   0.040857
     4  Na  -0.091490   0.098593   0.040857  11.038739
 Mulliken charges:
               1
     1  Na   0.073414
     2  Na   0.028682
     3  Na  -0.015397
     4  Na  -0.086699
 Sum of Mulliken charges =  -0.00000
 Mulliken charges with hydrogens summed into heavy atoms:
               1
     1  Na   0.073414
     2  Na   0.028682
     3  Na  -0.015397
     4  Na  -0.086699
 Electronic spatial extent (au):  <R**2>=           1849.3824
 Charge=             -0.0000 electrons
 Dipole moment (field-independent basis, Debye):
    X=              2.1555    Y=              0.4722    Z=              0.0617  Tot=              2.2075
 Quadrupole moment (field-independent basis, Debye-Ang):
   XX=            -44.9587   YY=            -35.7936   ZZ=            -42.5098
   XY=              2.5087   XZ=             -1.4003   YZ=             -2.4429
 Traceless Quadrupole moment (field-independent basis, Debye-Ang):
   XX=             -3.8714   YY=              5.2938   ZZ=             -1.4224
   XY=              2.5087   XZ=             -1.4003   YZ=             -2.4429
 Octapole moment (field-independent basis, Debye-Ang**2):
  XXX=             40.6700  YYY=             19.8249  ZZZ=              5.3602  XYY=             14.3196
  XXY=             -5.7976  XXZ=            -17.0380  XZZ=             14.5824  YZZ=             -2.2109
  YYZ=              3.4138  XYZ=             -0.3697
 Hexadecapole moment (field-independent basis, Debye-Ang**3):
 XXXX=          -2641.7666 YYYY=           -397.4813 ZZZZ=           -274.5371 XXXY=             30.3693
 XXXZ=            -38.5968 YYYX=             23.1929 YYYZ=            -13.6895 ZZZX=             -6.1932
 ZZZY=            -15.6320 XXYY=           -572.7921 XXZZ=           -529.5223 YYZZ=           -116.0714
 XXYZ=              5.9726 YYXZ=             -1.0658 ZZXY=              1.0769
 N-N= 8.492779235891D+01 E-N=-1.728850085754D+03  KE= 6.472906549309D+02
 No NMR shielding tensors so no spin-rotation constants.
 Leave Link  601 at Fri Oct  6 22:01:55 2023, MaxMem=  1610612736 cpu:               8.1 elap:               5.0
 (Enter /home/sekinelabo/g16/l701.exe)
 ... and contract with generalized density number  0.
 Compute integral first derivatives.
 Leave Link  701 at Fri Oct  6 22:01:59 2023, MaxMem=  1610612736 cpu:               7.1 elap:               4.4
 (Enter /home/sekinelabo/g16/l702.exe)
 L702 exits ... SP integral derivatives will be done elsewhere.
 Leave Link  702 at Fri Oct  6 22:02:00 2023, MaxMem=  1610612736 cpu:               0.6 elap:               0.4
 (Enter /home/sekinelabo/g16/l703.exe)
 Integral derivatives from FoFJK, PRISM(SPDF).
 Compute integral first derivatives, UseDBF=F ICtDFT=           0.
 Calling FoFJK, ICntrl=      2127 FMM=F ISym2X=0 I1Cent= 0 IOpClX= 0 NMat=1 NMatS=1 NMatT=0.
 FoFJK:  IHMeth= 1 ICntrl=    2127 DoSepK=F KAlg= 0 I1Cent=           0 FoldK=F
 IRaf=         0 NMat=       1 IRICut=       1 DoRegI=T DoRafI=F ISym2E= 0 IDoP0=0 IntGTp=1.
 FoFCou: FMM=F IPFlag=           0 FMFlag=      100000 FMFlg1=         800
         NFxFlg=           0 DoJE=F BraDBF=F KetDBF=F FulRan=T
         wScrn=  0.000000 ICntrl=      2127 IOpCl=  0 I1Cent=           0 NGrid=           0
         NMat0=    1 NMatS0=      1 NMatT0=    0 NMatD0=    1 NMtDS0=    0 NMtDT0=    0
 Symmetry not used in FoFCou.
 Leave Link  703 at Fri Oct  6 22:02:08 2023, MaxMem=  1610612736 cpu:              12.9 elap:               7.9
 (Enter /home/sekinelabo/g16/l716.exe)
 Dipole        = 8.48028386D-01 1.85780667D-01 2.42937490D-02
 ***** Axes restored to original set *****
 -------------------------------------------------------------------
 Center     Atomic                   Forces (Hartrees/Bohr)
 Number     Number              X              Y              Z
 -------------------------------------------------------------------
      1       11          -0.001040904    0.000503448    0.002950877
      2       11          -0.004180840   -0.002468790    0.001319563
      3       11           0.005452752   -0.001252528   -0.000635417
      4       11          -0.000231008    0.003217869   -0.003635022
 -------------------------------------------------------------------
 Cartesian Forces:  Max     0.005452752 RMS     0.002749041
 Z-matrix is all fixed cartesians, so copy forces.
 Force constants in Cartesian coordinates: 
                1             2             3             4             5 
      1  0.578726D-02
      2  0.000000D+00  0.000000D+00
      3  0.000000D+00  0.000000D+00  0.189713D-01
      4 -0.422715D-03  0.000000D+00  0.000000D+00  0.427333D-01
      5  0.000000D+00  0.000000D+00  0.000000D+00  0.000000D+00  0.000000D+00
      6  0.690180D-02  0.000000D+00  0.000000D+00  0.211128D-02  0.000000D+00
      7 -0.536455D-02  0.000000D+00  0.000000D+00 -0.423106D-01  0.000000D+00
      8  0.000000D+00  0.000000D+00  0.000000D+00  0.000000D+00  0.000000D+00
      9 -0.690180D-02  0.000000D+00 -0.189713D-01 -0.211128D-02  0.000000D+00
     10  0.000000D+00  0.000000D+00  0.000000D+00  0.000000D+00  0.000000D+00
     11  0.000000D+00  0.000000D+00  0.000000D+00  0.000000D+00  0.000000D+00
     12  0.000000D+00  0.000000D+00  0.000000D+00  0.000000D+00  0.000000D+00
                6             7             8             9            10 
      6  0.839117D-02
      7 -0.901308D-02  0.476752D-01
      8  0.000000D+00  0.000000D+00  0.000000D+00
      9 -0.839117D-02  0.901308D-02  0.000000D+00  0.273625D-01
     10  0.000000D+00  0.000000D+00  0.000000D+00  0.000000D+00  0.100000D+01
     11  0.000000D+00  0.000000D+00  0.000000D+00  0.000000D+00  0.000000D+00
     12  0.000000D+00  0.000000D+00  0.000000D+00  0.000000D+00  0.000000D+00
               11            12 
     11  0.100000D+01
     12  0.000000D+00  0.100000D+01
 Leave Link  716 at Fri Oct  6 22:02:08 2023, MaxMem=  1610612736 cpu:               0.7 elap:               0.6
 (Enter /home/sekinelabo/g16/l103.exe)

 GradGradGradGradGradGradGradGradGradGradGradGradGradGradGradGradGradGrad
 Berny optimization.
 Search for a local minimum.
 Step number   1 out of a maximum of    2
 All quantities printed in internal units (Hartrees-Bohrs-Radians)
 Second derivative matrix not updated -- first step.
 The second derivative matrix:
                          X1        Y1        Z1        X2        Y2
           X1           0.00579
           Y1           0.00000   0.00000
           Z1           0.00000   0.00000   0.01897
           X2          -0.00042  -0.00000   0.00000   0.04273
           Y2           0.00000  -0.00000   0.00000   0.00000   0.00000
           Z2           0.00690   0.00000  -0.00000   0.00211   0.00000
           X3          -0.00536  -0.00000   0.00000  -0.04231   0.00000
           Y3          -0.00000  -0.00000   0.00000   0.00000   0.00000
           Z3          -0.00690  -0.00000  -0.01897  -0.00211  -0.00000
           X4           0.00000   0.00000   0.00000   0.00000   0.00000
           Y4           0.00000   0.00000   0.00000   0.00000   0.00000
           Z4           0.00000   0.00000   0.00000   0.00000   0.00000
                          Z2        X3        Y3        Z3        X4
           Z2           0.00839
           X3          -0.00901   0.04768
           Y3           0.00000   0.00000   0.00000
           Z3          -0.00839   0.00901   0.00000   0.02736
           X4           0.00000   0.00000   0.00000   0.00000   1.00000
           Y4           0.00000   0.00000   0.00000   0.00000  -0.00000
           Z4           0.00000   0.00000   0.00000   0.00000   0.00000
                          Y4        Z4
           Y4           1.00000
           Z4          -0.00000   1.00000
 ITU=  0
     Eigenvalues ---    0.01675   0.04404   0.09013   0.11968   0.19299
     Eigenvalues ---    0.75000
 Angle between quadratic step and forces=  41.29 degrees.
 Linear search not attempted -- first point.
 B after Tr=    -0.000000    0.000000    0.000000
         Rot=    1.000000   -0.000000   -0.000000    0.000000 Ang=   0.00 deg.
 Variable       Old X    -DE/DX   Delta X   Delta X   Delta X     New X
                                 (Linear)    (Quad)   (Total)
    X1        0.00000  -0.00104   0.00000  -0.01971  -0.01971  -0.01971
    Y1       -0.00000   0.00050   0.00000   0.00615   0.00615   0.00615
    Z1        0.00000   0.00295   0.00000   0.06625   0.06625   0.06625
    X2       -5.49058  -0.00418   0.00000  -0.04366  -0.04366  -5.53423
    Y2        0.00000  -0.00247   0.00000  -0.00959  -0.00959  -0.00959
    Z2        6.23626   0.00132   0.00000  -0.01827  -0.01827   6.21799
    X3        0.00000   0.00545   0.00000   0.06722   0.06722   0.06722
    Y3        0.00000  -0.00125   0.00000  -0.00406  -0.00406  -0.00406
    Z3        6.57254  -0.00064   0.00000  -0.04446  -0.04446   6.52809
    X4       -3.75541  -0.00023   0.00000  -0.00385  -0.00385  -3.75926
    Y4       -6.37008   0.00322   0.00000   0.00749   0.00749  -6.36259
    Z4       14.53819  -0.00364   0.00000  -0.00352  -0.00352  14.53466
         Item               Value     Threshold  Converged?
 Maximum Force            0.005453     0.000450     NO 
 RMS     Force            0.002749     0.000300     NO 
 Maximum Displacement     0.067216     0.001800     NO 
 RMS     Displacement     0.033840     0.001200     NO 
 Predicted change in Energy=-4.194258D-04
 GradGradGradGradGradGradGradGradGradGradGradGradGradGradGradGradGradGrad

 Leave Link  103 at Fri Oct  6 22:02:11 2023, MaxMem=  1610612736 cpu:               3.8 elap:               2.5
 (Enter /home/sekinelabo/g16/l9999.exe)
 1\1\GINC-SEKINELABO-XA7R-R37\Force\RB3LYP\6-311+G(d)\Na4\SEKINELABO\06
 -Oct-2023\0\\#p B3LYP/6-311+g(d) force\\\0,1\Na,0.,0.,0.\Na,-2.9054881
 599,0.,3.3000866438\Na,0.,0.,3.478039255\Na,-1.9872771797,-3.370900979
 7,7.6932761955\\Version=ES64L-G16RevB.01\State=1-A\HF=-649.178634\RMSD
 =4.255e-09\RMSF=2.749e-03\Dipole=0.0275866,0.4413886,-0.7474436\Quadru
 pole=3.1860078,-2.0662733,-1.1197345,-1.3695982,3.2388969,0.323808\PG=
 C01 [X(Na4)]\\@


 The best way to pay for a lovely moment is to enjoy it.
 -- Richard Bach
 Job cpu time:       0 days  0 hours  4 minutes 13.0 seconds.
 Elapsed time:       0 days  0 hours  2 minutes 37.3 seconds.
 File lengths (MBytes):  RWF=     10 Int=      0 D2E=      0 Chk=      2 Scr=      1
 Normal termination of Gaussian 16 at Fri Oct  6 22:02:12 2023.
 Initial command:
 /home/sekinelabo/g16/l1.exe "/home/sekinelabo/g16temp/Gau-708791.inp" -scrdir="/home/sekinelabo/g16temp/"
 Entering Link 1 = /home/sekinelabo/g16/l1.exe PID=    711848.
  
 Copyright (c) 1988-2017, Gaussian, Inc.  All Rights Reserved.
  
 This is part of the Gaussian(R) 16 program.  It is based on
 the Gaussian(R) 09 system (copyright 2009, Gaussian, Inc.),
 the Gaussian(R) 03 system (copyright 2003, Gaussian, Inc.),
 the Gaussian(R) 98 system (copyright 1998, Gaussian, Inc.),
 the Gaussian(R) 94 system (copyright 1995, Gaussian, Inc.),
 the Gaussian 92(TM) system (copyright 1992, Gaussian, Inc.),
 the Gaussian 90(TM) system (copyright 1990, Gaussian, Inc.),
 the Gaussian 88(TM) system (copyright 1988, Gaussian, Inc.),
 the Gaussian 86(TM) system (copyright 1986, Carnegie Mellon
 University), and the Gaussian 82(TM) system (copyright 1983,
 Carnegie Mellon University). Gaussian is a federally registered
 trademark of Gaussian, Inc.
  
 This software contains proprietary and confidential information,
 including trade secrets, belonging to Gaussian, Inc.
  
 This software is provided under written license and may be
 used, copied, transmitted, or stored only in accord with that
 written license.
  
 The following legend is applicable only to US Government
 contracts under FAR:
  
                    RESTRICTED RIGHTS LEGEND
  
 Use, reproduction and disclosure by the US Government is
 subject to restrictions as set forth in subparagraphs (a)
 and (c) of the Commercial Computer Software - Restricted
 Rights clause in FAR 52.227-19.
  
 Gaussian, Inc.
 340 Quinnipiac St., Bldg. 40, Wallingford CT 06492
  
  
 ---------------------------------------------------------------
 Warning -- This program may not be used in any manner that
 competes with the business of Gaussian, Inc. or will provide
 assistance to any competitor of Gaussian, Inc.  The licensee
 of this program is prohibited from giving any competitor of
 Gaussian, Inc. access to this program.  By using this program,
 the user acknowledges that Gaussian, Inc. is engaged in the
 business of creating and licensing software in the field of
 computational chemistry and represents and warrants to the
 licensee that it is not a competitor of Gaussian, Inc. and that
 it will not use this program in any manner prohibited above.
 ---------------------------------------------------------------
  

 Cite this work as:
 Gaussian 16, Revision B.01,
 M. J. Frisch, G. W. Trucks, H. B. Schlegel, G. E. Scuseria, 
 M. A. Robb, J. R. Cheeseman, G. Scalmani, V. Barone, 
 G. A. Petersson, H. Nakatsuji, X. Li, M. Caricato, A. V. Marenich, 
 J. Bloino, B. G. Janesko, R. Gomperts, B. Mennucci, H. P. Hratchian, 
 J. V. Ortiz, A. F. Izmaylov, J. L. Sonnenberg, D. Williams-Young, 
 F. Ding, F. Lipparini, F. Egidi, J. Goings, B. Peng, A. Petrone, 
 T. Henderson, D. Ranasinghe, V. G. Zakrzewski, J. Gao, N. Rega, 
 G. Zheng, W. Liang, M. Hada, M. Ehara, K. Toyota, R. Fukuda, 
 J. Hasegawa, M. Ishida, T. Nakajima, Y. Honda, O. Kitao, H. Nakai, 
 T. Vreven, K. Throssell, J. A. Montgomery, Jr., J. E. Peralta, 
 F. Ogliaro, M. J. Bearpark, J. J. Heyd, E. N. Brothers, K. N. Kudin, 
 V. N. Staroverov, T. A. Keith, R. Kobayashi, J. Normand, 
 K. Raghavachari, A. P. Rendell, J. C. Burant, S. S. Iyengar, 
 J. Tomasi, M. Cossi, J. M. Millam, M. Klene, C. Adamo, R. Cammi, 
 J. W. Ochterski, R. L. Martin, K. Morokuma, O. Farkas, 
 J. B. Foresman, and D. J. Fox, Gaussian, Inc., Wallingford CT, 2016.
 
 ******************************************
 Gaussian 16:  ES64L-G16RevB.01 20-Dec-2017
                 6-Oct-2023 
 ******************************************
 %NProcShared=16
 Will use up to   16 processors via shared memory.
 %mem=12GB
 %Chk=checkpoint.chk
 -------------------------
 #p B3LYP/6-311+g(d) force
 -------------------------
 1/10=7,30=1,38=1/1,3;
 2/12=2,17=6,18=5,40=1/2;
 3/5=4,6=6,7=11,11=2,25=1,30=1,71=1,74=-5/1,2,3;
 4//1;
 5/5=2,38=5/2;
 6/7=2,8=2,9=2,10=2,28=1/1;
 7/29=1/1,2,3,16;
 1/10=7,30=1/3;
 99//99;
 Leave Link    1 at Fri Oct  6 22:02:12 2023, MaxMem=  1610612736 cpu:               0.5 elap:               0.4
 (Enter /home/sekinelabo/g16/l101.exe)


 Symbolic Z-matrix:
 Charge =  0 Multiplicity = 1
 Na                    0.        0.        0. 
 Na                   -2.93067   0.       -3.77085 
 Na                    0.        0.        5.05903 
 Na                   -0.91671  -2.18963   2.52499 
 
 ITRead=  0  0  0  0
 MicOpt= -1 -1 -1 -1
 NAtoms=      4 NQM=        4 NQMF=       0 NMMI=      0 NMMIF=      0
                NMic=       0 NMicF=      0.
                    Isotopes and Nuclear Properties:
 (Nuclear quadrupole moments (NQMom) in fm**2, nuclear magnetic moments (NMagM)
  in nuclear magnetons)

  Atom         1           2           3           4
 IAtWgt=          23          23          23          23
 AtmWgt=  22.9897697  22.9897697  22.9897697  22.9897697
 NucSpn=           3           3           3           3
 AtZEff=  -0.0000000  -0.0000000  -0.0000000  -0.0000000
 NQMom=   10.4000000  10.4000000  10.4000000  10.4000000
 NMagM=    2.2175200   2.2175200   2.2175200   2.2175200
 AtZNuc=  11.0000000  11.0000000  11.0000000  11.0000000
 Leave Link  101 at Fri Oct  6 22:02:13 2023, MaxMem=  1610612736 cpu:               1.9 elap:               1.2
 (Enter /home/sekinelabo/g16/l103.exe)

 GradGradGradGradGradGradGradGradGradGradGradGradGradGradGradGradGradGrad
 Berny optimization.
 Initialization pass.
 Trust Radius=3.00D-01 FncErr=1.00D-07 GrdErr=1.00D-07 EigMax=2.50D+02 EigMin=1.00D-04
 Number of steps in this run=      2 maximum allowed number of steps=      2.
 GradGradGradGradGradGradGradGradGradGradGradGradGradGradGradGradGradGrad

 Leave Link  103 at Fri Oct  6 22:02:13 2023, MaxMem=  1610612736 cpu:               0.6 elap:               0.4
 (Enter /home/sekinelabo/g16/l202.exe)
                          Input orientation:                          
 ---------------------------------------------------------------------
 Center     Atomic      Atomic             Coordinates (Angstroms)
 Number     Number       Type             X           Y           Z
 ---------------------------------------------------------------------
      1         11           0        0.000000    0.000000    0.000000
      2         11           0       -2.930666    0.000000   -3.770847
      3         11           0        0.000000    0.000000    5.059035
      4         11           0       -0.916711   -2.189635    2.524989
 ---------------------------------------------------------------------
                    Distance matrix (angstroms):
                    1          2          3          4
     1  Na   0.000000
     2  Na   4.775781   0.000000
     3  Na   5.059035   9.303527   0.000000
     4  Na   3.465607   6.963337   3.472210   0.000000
 Stoichiometry    Na4
 Framework group  C1[X(Na4)]
 Deg. of freedom     6
 Full point group                 C1      NOp   1
 Largest Abelian subgroup         C1      NOp   1
 Largest concise Abelian subgroup C1      NOp   1
                         Standard orientation:                         
 ---------------------------------------------------------------------
 Center     Atomic      Atomic             Coordinates (Angstroms)
 Number     Number       Type             X           Y           Z
 ---------------------------------------------------------------------
      1         11           0       -0.672932   -0.974596    0.854925
      2         11           0       -5.119438    0.087799   -0.526377
      3         11           0        4.153414   -0.660093   -0.628753
      4         11           0        1.638956    1.546890    0.300206
 ---------------------------------------------------------------------
 Rotational constants (GHZ):           4.1637512           0.4570991           0.4362992
 Leave Link  202 at Fri Oct  6 22:02:14 2023, MaxMem=  1610612736 cpu:               1.2 elap:               0.7
 (Enter /home/sekinelabo/g16/l301.exe)
 Standard basis: 6-311+G(d) (5D, 7F)
 Ernie: Thresh=  0.10000D-02 Tol=  0.10000D-05 Strict=F.
 There are   124 symmetry adapted cartesian basis functions of A   symmetry.
 There are   120 symmetry adapted basis functions of A   symmetry.
   120 basis functions,   200 primitive gaussians,   124 cartesian basis functions
    22 alpha electrons       22 beta electrons
       nuclear repulsion energy        79.0585270737 Hartrees.
 IExCor=  402 DFT=T Ex+Corr=B3LYP ExCW=0 ScaHFX=  0.200000
 ScaDFX=  0.800000  0.720000  1.000000  0.810000 ScalE2=  1.000000  1.000000
 IRadAn=      5 IRanWt=     -1 IRanGd=            0 ICorTp=0 IEmpDi=  4
 NAtoms=    4 NActive=    4 NUniq=    4 SFac= 1.00D+00 NAtFMM=   60 NAOKFM=F Big=F
 Integral buffers will be    131072 words long.
 Raffenetti 2 integral format.
 Two-electron integral symmetry is turned on.
 Leave Link  301 at Fri Oct  6 22:02:15 2023, MaxMem=  1610612736 cpu:               0.7 elap:               0.4
 (Enter /home/sekinelabo/g16/l302.exe)
 NPDir=0 NMtPBC=     1 NCelOv=     1 NCel=       1 NClECP=     1 NCelD=      1
         NCelK=      1 NCelE2=     1 NClLst=     1 CellRange=     0.0.
 One-electron integrals computed using PRISM.
 One-electron integral symmetry used in STVInt
 NBasis=   120 RedAO= T EigKep=  1.51D-04  NBF=   120
 NBsUse=   120 1.00D-06 EigRej= -1.00D+00 NBFU=   120
 Precomputing XC quadrature grid using
 IXCGrd= 4 IRadAn=           5 IRanWt=          -1 IRanGd=           0 AccXCQ= 0.00D+00.
 Generated NRdTot=       0 NPtTot=           0 NUsed=           0 NTot=          32
 NSgBfM=   116   116   116   116   116 MxSgAt=     4 MxSgA2=     4.
 Leave Link  302 at Fri Oct  6 22:02:28 2023, MaxMem=  1610612736 cpu:              21.1 elap:              12.9
 (Enter /home/sekinelabo/g16/l303.exe)
 DipDrv:  MaxL=1.
 Leave Link  303 at Fri Oct  6 22:02:29 2023, MaxMem=  1610612736 cpu:               2.6 elap:               1.7
 (Enter /home/sekinelabo/g16/l401.exe)
 ExpMin= 7.60D-03 ExpMax= 3.62D+04 ExpMxC= 1.21D+03 IAcc=3 IRadAn=         5 AccDes= 0.00D+00
 Harris functional with IExCor=  402 and IRadAn=       5 diagonalized for initial guess.
 HarFok:  IExCor=  402 AccDes= 0.00D+00 IRadAn=         5 IDoV= 1 UseB2=F ITyADJ=14
 ICtDFT=  3500011 ScaDFX=  1.000000  1.000000  1.000000  1.000000
 FoFCou: FMM=F IPFlag=           0 FMFlag=      100000 FMFlg1=           0
         NFxFlg=           0 DoJE=T BraDBF=F KetDBF=T FulRan=T
         wScrn=  0.000000 ICntrl=       500 IOpCl=  0 I1Cent=   200000004 NGrid=           0
         NMat0=    1 NMatS0=      1 NMatT0=    0 NMatD0=    1 NMtDS0=    0 NMtDT0=    0
 Petite list used in FoFCou.
 Harris En= -649.058853200114    
 JPrj=0 DoOrth=F DoCkMO=F.
 Leave Link  401 at Fri Oct  6 22:02:39 2023, MaxMem=  1610612736 cpu:              15.1 elap:               9.9
 (Enter /home/sekinelabo/g16/l502.exe)
 Keep R1 ints in memory in canonical form, NReq=41581762.
 FoFCou: FMM=F IPFlag=           0 FMFlag=           0 FMFlg1=           0
         NFxFlg=           0 DoJE=F BraDBF=F KetDBF=F FulRan=T
         wScrn=  0.000000 ICntrl=       600 IOpCl=  0 I1Cent=           0 NGrid=           0
         NMat0=    1 NMatS0=   7260 NMatT0=    0 NMatD0=    1 NMtDS0=    0 NMtDT0=    0
 Symmetry not used in FoFCou.
 Two-electron integral symmetry not used.
 Closed shell SCF:
 Using DIIS extrapolation, IDIIS=  1040.
 NGot=  1610612736 LenX=  1584221380 LenY=  1584205563
 Requested convergence on RMS density matrix=1.00D-08 within 128 cycles.
 Requested convergence on MAX density matrix=1.00D-06.
 Requested convergence on             energy=1.00D-06.
 No special actions if energy rises.

 Cycle   1  Pass 1  IDiag  1:
 E= -649.172892789628    
 DIIS: error= 1.44D-02 at cycle   1 NSaved=   1.
 NSaved= 1 IEnMin= 1 EnMin= -649.172892789628     IErMin= 1 ErrMin= 1.44D-02
 ErrMax= 1.44D-02  0.00D+00 EMaxC= 1.00D-01 BMatC= 2.65D-02 BMatP= 2.65D-02
 IDIUse=3 WtCom= 8.56D-01 WtEn= 1.44D-01
 Coeff-Com:  0.100D+01
 Coeff-En:   0.100D+01
 Coeff:      0.100D+01
 Gap=     0.031 Goal=   None    Shift=    0.000
 GapD=    0.031 DampG=0.250 DampE=0.500 DampFc=0.2500 IDamp=-1.
 Damping current iteration by 2.50D-01
 RMSDP=2.59D-03 MaxDP=9.66D-02              OVMax= 1.50D-01

 Cycle   2  Pass 1  IDiag  1:
 E= -649.177035715536     Delta-E=       -0.004142925908 Rises=F Damp=T
 DIIS: error= 1.00D-02 at cycle   2 NSaved=   2.
 NSaved= 2 IEnMin= 2 EnMin= -649.177035715536     IErMin= 2 ErrMin= 1.00D-02
 ErrMax= 1.00D-02  0.00D+00 EMaxC= 1.00D-01 BMatC= 1.02D-02 BMatP= 2.65D-02
 IDIUse=3 WtCom= 9.00D-01 WtEn= 1.00D-01
 Coeff-Com: -0.128D+01 0.228D+01
 Coeff-En:   0.000D+00 0.100D+01
 Coeff:     -0.115D+01 0.215D+01
 Gap=     0.035 Goal=   None    Shift=    0.000
 RMSDP=2.43D-03 MaxDP=8.47D-02 DE=-4.14D-03 OVMax= 2.56D-01

 Cycle   3  Pass 1  IDiag  1:
 E= -649.178986812133     Delta-E=       -0.001951096597 Rises=F Damp=F
 DIIS: error= 3.66D-03 at cycle   3 NSaved=   3.
 NSaved= 3 IEnMin= 3 EnMin= -649.178986812133     IErMin= 3 ErrMin= 3.66D-03
 ErrMax= 3.66D-03  0.00D+00 EMaxC= 1.00D-01 BMatC= 8.13D-04 BMatP= 1.02D-02
 IDIUse=3 WtCom= 9.63D-01 WtEn= 3.66D-02
 Coeff-Com: -0.329D+00 0.589D+00 0.740D+00
 Coeff-En:   0.000D+00 0.357D+00 0.643D+00
 Coeff:     -0.317D+00 0.580D+00 0.737D+00
 Gap=     0.025 Goal=   None    Shift=    0.000
 RMSDP=4.28D-03 MaxDP=2.14D-01 DE=-1.95D-03 OVMax= 4.65D-01

 Cycle   4  Pass 1  IDiag  1:
 E= -649.147560111892     Delta-E=        0.031426700241 Rises=F Damp=F
 DIIS: error= 8.52D-03 at cycle   4 NSaved=   4.
 NSaved= 4 IEnMin= 3 EnMin= -649.178986812133     IErMin= 3 ErrMin= 3.66D-03
 ErrMax= 8.52D-03  0.00D+00 EMaxC= 1.00D-01 BMatC= 3.95D-03 BMatP= 8.13D-04
 IDIUse=3 WtCom= 9.77D-02 WtEn= 9.02D-01
 Coeff-Com:  0.151D-02 0.166D-01 0.687D+00 0.295D+00
 Coeff-En:   0.000D+00 0.000D+00 0.760D+00 0.240D+00
 Coeff:      0.148D-03 0.162D-02 0.753D+00 0.245D+00
 Gap=     0.030 Goal=   None    Shift=    0.000
 RMSDP=2.30D-03 MaxDP=9.34D-02 DE= 3.14D-02 OVMax= 2.50D-01

 Cycle   5  Pass 1  IDiag  1:
 E= -649.182841043289     Delta-E=       -0.035280931397 Rises=F Damp=F
 DIIS: error= 2.52D-03 at cycle   5 NSaved=   5.
 NSaved= 5 IEnMin= 5 EnMin= -649.182841043289     IErMin= 5 ErrMin= 2.52D-03
 ErrMax= 2.52D-03  0.00D+00 EMaxC= 1.00D-01 BMatC= 3.63D-04 BMatP= 8.13D-04
 IDIUse=3 WtCom= 9.75D-01 WtEn= 2.52D-02
 Coeff-Com: -0.755D-02 0.926D-02 0.334D+00-0.786D-01 0.743D+00
 Coeff-En:   0.000D+00 0.000D+00 0.369D+00 0.000D+00 0.631D+00
 Coeff:     -0.736D-02 0.902D-02 0.335D+00-0.766D-01 0.740D+00
 Gap=     0.032 Goal=   None    Shift=    0.000
 RMSDP=7.89D-04 MaxDP=3.87D-02 DE=-3.53D-02 OVMax= 8.51D-02

 Cycle   6  Pass 1  IDiag  1:
 E= -649.185812567869     Delta-E=       -0.002971524580 Rises=F Damp=F
 DIIS: error= 4.03D-04 at cycle   6 NSaved=   6.
 NSaved= 6 IEnMin= 6 EnMin= -649.185812567869     IErMin= 6 ErrMin= 4.03D-04
 ErrMax= 4.03D-04  0.00D+00 EMaxC= 1.00D-01 BMatC= 6.00D-06 BMatP= 3.63D-04
 IDIUse=3 WtCom= 9.96D-01 WtEn= 4.03D-03
 Coeff-Com: -0.408D-03-0.837D-04 0.994D-01-0.424D-01 0.200D+00 0.743D+00
 Coeff-En:   0.000D+00 0.000D+00 0.000D+00 0.000D+00 0.000D+00 0.100D+01
 Coeff:     -0.406D-03-0.833D-04 0.990D-01-0.423D-01 0.200D+00 0.744D+00
 Gap=     0.033 Goal=   None    Shift=    0.000
 RMSDP=1.02D-04 MaxDP=4.72D-03 DE=-2.97D-03 OVMax= 9.08D-03

 Cycle   7  Pass 1  IDiag  1:
 E= -649.185854674011     Delta-E=       -0.000042106142 Rises=F Damp=F
 DIIS: error= 1.43D-04 at cycle   7 NSaved=   7.
 NSaved= 7 IEnMin= 7 EnMin= -649.185854674011     IErMin= 7 ErrMin= 1.43D-04
 ErrMax= 1.43D-04  0.00D+00 EMaxC= 1.00D-01 BMatC= 1.31D-06 BMatP= 6.00D-06
 IDIUse=3 WtCom= 9.99D-01 WtEn= 1.43D-03
 Coeff-Com:  0.484D-03-0.797D-03 0.331D-01-0.194D-01 0.441D-01 0.352D+00
 Coeff-Com:  0.591D+00
 Coeff-En:   0.000D+00 0.000D+00 0.000D+00 0.000D+00 0.000D+00 0.000D+00
 Coeff-En:   0.100D+01
 Coeff:      0.483D-03-0.796D-03 0.330D-01-0.194D-01 0.441D-01 0.351D+00
 Coeff:      0.591D+00
 Gap=     0.033 Goal=   None    Shift=    0.000
 RMSDP=3.72D-05 MaxDP=2.02D-03 DE=-4.21D-05 OVMax= 2.78D-03

 Cycle   8  Pass 1  IDiag  1:
 E= -649.185861404502     Delta-E=       -0.000006730491 Rises=F Damp=F
 DIIS: error= 6.39D-05 at cycle   8 NSaved=   8.
 NSaved= 8 IEnMin= 8 EnMin= -649.185861404502     IErMin= 8 ErrMin= 6.39D-05
 ErrMax= 6.39D-05  0.00D+00 EMaxC= 1.00D-01 BMatC= 2.21D-07 BMatP= 1.31D-06
 IDIUse=1 WtCom= 1.00D+00 WtEn= 0.00D+00
 Coeff-Com:  0.120D-02-0.166D-02 0.950D-02-0.418D-02-0.924D-02 0.959D-01
 Coeff-Com:  0.254D+00 0.655D+00
 Coeff:      0.120D-02-0.166D-02 0.950D-02-0.418D-02-0.924D-02 0.959D-01
 Coeff:      0.254D+00 0.655D+00
 Gap=     0.033 Goal=   None    Shift=    0.000
 RMSDP=1.72D-05 MaxDP=1.03D-03 DE=-6.73D-06 OVMax= 1.51D-03

 Cycle   9  Pass 1  IDiag  1:
 E= -649.185862737782     Delta-E=       -0.000001333280 Rises=F Damp=F
 DIIS: error= 1.92D-05 at cycle   9 NSaved=   9.
 NSaved= 9 IEnMin= 9 EnMin= -649.185862737782     IErMin= 9 ErrMin= 1.92D-05
 ErrMax= 1.92D-05  0.00D+00 EMaxC= 1.00D-01 BMatC= 2.78D-08 BMatP= 2.21D-07
 IDIUse=1 WtCom= 1.00D+00 WtEn= 0.00D+00
 Coeff-Com:  0.613D-03-0.824D-03 0.138D-02-0.647D-04-0.108D-01-0.209D-02
 Coeff-Com:  0.341D-01 0.308D+00 0.670D+00
 Coeff:      0.613D-03-0.824D-03 0.138D-02-0.647D-04-0.108D-01-0.209D-02
 Coeff:      0.341D-01 0.308D+00 0.670D+00
 Gap=     0.033 Goal=   None    Shift=    0.000
 RMSDP=8.39D-06 MaxDP=4.52D-04 DE=-1.33D-06 OVMax= 8.27D-04

 Cycle  10  Pass 1  IDiag  1:
 E= -649.185862969565     Delta-E=       -0.000000231783 Rises=F Damp=F
 DIIS: error= 1.37D-06 at cycle  10 NSaved=  10.
 NSaved=10 IEnMin=10 EnMin= -649.185862969565     IErMin=10 ErrMin= 1.37D-06
 ErrMax= 1.37D-06  0.00D+00 EMaxC= 1.00D-01 BMatC= 2.42D-10 BMatP= 2.78D-08
 IDIUse=1 WtCom= 1.00D+00 WtEn= 0.00D+00
 Coeff-Com:  0.127D-03-0.172D-03-0.740D-03 0.465D-03-0.372D-02-0.822D-02
 Coeff-Com: -0.490D-02 0.368D-01 0.190D+00 0.790D+00
 Coeff:      0.127D-03-0.172D-03-0.740D-03 0.465D-03-0.372D-02-0.822D-02
 Coeff:     -0.490D-02 0.368D-01 0.190D+00 0.790D+00
 Gap=     0.033 Goal=   None    Shift=    0.000
 RMSDP=1.21D-06 MaxDP=5.06D-05 DE=-2.32D-07 OVMax= 8.96D-05

 Cycle  11  Pass 1  IDiag  1:
 E= -649.185862969610     Delta-E=       -0.000000000045 Rises=F Damp=F
 DIIS: error= 1.82D-06 at cycle  11 NSaved=  11.
 NSaved=11 IEnMin=11 EnMin= -649.185862969610     IErMin=10 ErrMin= 1.37D-06
 ErrMax= 1.82D-06  0.00D+00 EMaxC= 1.00D-01 BMatC= 1.34D-10 BMatP= 2.42D-10
 IDIUse=1 WtCom= 1.00D+00 WtEn= 0.00D+00
 Coeff-Com: -0.362D-04 0.476D-04-0.347D-03 0.682D-04 0.846D-04 0.131D-02
 Coeff-Com: -0.421D-04-0.123D-01-0.184D-01 0.631D-01 0.966D+00
 Coeff:     -0.362D-04 0.476D-04-0.347D-03 0.682D-04 0.846D-04 0.131D-02
 Coeff:     -0.421D-04-0.123D-01-0.184D-01 0.631D-01 0.966D+00
 Gap=     0.033 Goal=   None    Shift=    0.000
 RMSDP=5.23D-07 MaxDP=2.04D-05 DE=-4.46D-11 OVMax= 5.12D-05

 Cycle  12  Pass 1  IDiag  1:
 E= -649.185862970754     Delta-E=       -0.000000001144 Rises=F Damp=F
 DIIS: error= 2.23D-07 at cycle  12 NSaved=  12.
 NSaved=12 IEnMin=12 EnMin= -649.185862970754     IErMin=12 ErrMin= 2.23D-07
 ErrMax= 2.23D-07  0.00D+00 EMaxC= 1.00D-01 BMatC= 3.57D-12 BMatP= 1.34D-10
 IDIUse=1 WtCom= 1.00D+00 WtEn= 0.00D+00
 Coeff-Com: -0.108D-04 0.146D-04-0.629D-04 0.548D-05 0.699D-04 0.515D-03
 Coeff-Com:  0.622D-03-0.188D-02-0.496D-02-0.343D-01 0.200D+00 0.840D+00
 Coeff:     -0.108D-04 0.146D-04-0.629D-04 0.548D-05 0.699D-04 0.515D-03
 Coeff:      0.622D-03-0.188D-02-0.496D-02-0.343D-01 0.200D+00 0.840D+00
 Gap=     0.033 Goal=   None    Shift=    0.000
 RMSDP=7.11D-08 MaxDP=2.37D-06 DE=-1.14D-09 OVMax= 5.53D-06

 Cycle  13  Pass 1  IDiag  1:
 E= -649.185862970778     Delta-E=       -0.000000000024 Rises=F Damp=F
 DIIS: error= 7.03D-08 at cycle  13 NSaved=  13.
 NSaved=13 IEnMin=13 EnMin= -649.185862970778     IErMin=13 ErrMin= 7.03D-08
 ErrMax= 7.03D-08  0.00D+00 EMaxC= 1.00D-01 BMatC= 2.54D-13 BMatP= 3.57D-12
 IDIUse=1 WtCom= 1.00D+00 WtEn= 0.00D+00
 Coeff-Com: -0.576D-06 0.837D-06-0.302D-05-0.194D-05 0.174D-04 0.665D-04
 Coeff-Com:  0.187D-03 0.208D-03-0.469D-03-0.106D-01-0.264D-02 0.132D+00
 Coeff-Com:  0.881D+00
 Coeff:     -0.576D-06 0.837D-06-0.302D-05-0.194D-05 0.174D-04 0.665D-04
 Coeff:      0.187D-03 0.208D-03-0.469D-03-0.106D-01-0.264D-02 0.132D+00
 Coeff:      0.881D+00
 Gap=     0.033 Goal=   None    Shift=    0.000
 RMSDP=3.05D-08 MaxDP=1.30D-06 DE=-2.40D-11 OVMax= 2.85D-06

 Cycle  14  Pass 1  IDiag  1:
 E= -649.185862970775     Delta-E=        0.000000000003 Rises=F Damp=F
 DIIS: error= 6.93D-09 at cycle  14 NSaved=  14.
 NSaved=14 IEnMin=13 EnMin= -649.185862970778     IErMin=14 ErrMin= 6.93D-09
 ErrMax= 6.93D-09  0.00D+00 EMaxC= 1.00D-01 BMatC= 4.15D-15 BMatP= 2.54D-13
 IDIUse=1 WtCom= 1.00D+00 WtEn= 0.00D+00
 Coeff-Com:  0.466D-06-0.596D-06 0.166D-05-0.341D-06-0.260D-05-0.109D-04
 Coeff-Com:  0.704D-05 0.122D-03 0.265D-03-0.117D-02-0.892D-02-0.940D-02
 Coeff-Com:  0.213D+00 0.806D+00
 Coeff:      0.466D-06-0.596D-06 0.166D-05-0.341D-06-0.260D-05-0.109D-04
 Coeff:      0.704D-05 0.122D-03 0.265D-03-0.117D-02-0.892D-02-0.940D-02
 Coeff:      0.213D+00 0.806D+00
 Gap=     0.033 Goal=   None    Shift=    0.000
 RMSDP=4.56D-09 MaxDP=1.86D-07 DE= 2.61D-12 OVMax= 2.91D-07

 SCF Done:  E(RB3LYP) =  -649.185862971     A.U. after   14 cycles
            NFock= 14  Conv=0.46D-08     -V/T= 2.0030
 KE= 6.472472072091D+02 PE=-1.717147581561D+03 EE= 3.416559843069D+02
 Leave Link  502 at Fri Oct  6 22:04:14 2023, MaxMem=  1610612736 cpu:             150.6 elap:              94.3
 (Enter /home/sekinelabo/g16/l601.exe)
 Copying SCF densities to generalized density rwf, IOpCl= 0 IROHF=0.

 **********************************************************************

            Population analysis using the SCF Density.

 **********************************************************************

 Orbital symmetries:
       Occupied  (A) (A) (A) (A) (A) (A) (A) (A) (A) (A) (A) (A)
                 (A) (A) (A) (A) (A) (A) (A) (A) (A) (A)
       Virtual   (A) (A) (A) (A) (A) (A) (A) (A) (A) (A) (A) (A)
                 (A) (A) (A) (A) (A) (A) (A) (A) (A) (A) (A) (A)
                 (A) (A) (A) (A) (A) (A) (A) (A) (A) (A) (A) (A)
                 (A) (A) (A) (A) (A) (A) (A) (A) (A) (A) (A) (A)
                 (A) (A) (A) (A) (A) (A) (A) (A) (A) (A) (A) (A)
                 (A) (A) (A) (A) (A) (A) (A) (A) (A) (A) (A) (A)
                 (A) (A) (A) (A) (A) (A) (A) (A) (A) (A) (A) (A)
                 (A) (A) (A) (A) (A) (A) (A) (A) (A) (A) (A) (A)
                 (A) (A)
 The electronic state is 1-A.
 Alpha  occ. eigenvalues --  -38.45282 -38.45233 -38.45171 -38.44983  -2.21017
 Alpha  occ. eigenvalues --   -2.20952  -2.20943  -2.20666  -1.14691  -1.14689
 Alpha  occ. eigenvalues --   -1.14659  -1.14657  -1.14639  -1.14622  -1.14601
 Alpha  occ. eigenvalues --   -1.14558  -1.14552  -1.14345  -1.14345  -1.14300
 Alpha  occ. eigenvalues --   -0.14486  -0.10955
 Alpha virt. eigenvalues --   -0.07627  -0.05705  -0.03105  -0.02613  -0.02023
 Alpha virt. eigenvalues --   -0.01279  -0.00961  -0.00561  -0.00370   0.00154
 Alpha virt. eigenvalues --    0.00415   0.00611   0.00930   0.01002   0.01199
 Alpha virt. eigenvalues --    0.01432   0.01610   0.01742   0.01875   0.02083
 Alpha virt. eigenvalues --    0.02130   0.02285   0.02396   0.02399   0.02965
 Alpha virt. eigenvalues --    0.03053   0.03105   0.03719   0.04171   0.04339
 Alpha virt. eigenvalues --    0.06654   0.07152   0.07364   0.07817   0.08110
 Alpha virt. eigenvalues --    0.08479   0.08561   0.08652   0.09190   0.09508
 Alpha virt. eigenvalues --    0.09978   0.10600   0.11156   0.12216   0.13059
 Alpha virt. eigenvalues --    0.14367   0.27986   0.29404   0.29555   0.30202
 Alpha virt. eigenvalues --    0.32659   0.33906   0.34557   0.35034   0.35127
 Alpha virt. eigenvalues --    0.35350   0.35428   0.35553   0.36444   0.37087
 Alpha virt. eigenvalues --    0.38862   0.42322   0.42536   0.42578   0.42986
 Alpha virt. eigenvalues --    0.43347   0.43685   0.43977   0.44096   0.44847
 Alpha virt. eigenvalues --    0.44949   0.45754   0.46683   0.47063   0.49238
 Alpha virt. eigenvalues --    0.51383   0.54760   0.61042   2.00039   2.03213
 Alpha virt. eigenvalues --    2.06940   2.13793   4.42508   4.42931   4.43343
 Alpha virt. eigenvalues --    4.43782   4.44029   4.44219   4.44292   4.44561
 Alpha virt. eigenvalues --    4.44912   4.46690   4.49795   4.50248  96.18857
 Alpha virt. eigenvalues --   96.22577  96.26988  96.35448
          Condensed to atoms (all electrons):
               1          2          3          4
     1  Na  10.795273   0.215770  -0.106068   0.156545
     2  Na   0.215770  10.939336  -0.057315  -0.041875
     3  Na  -0.106068  -0.057315  10.826208   0.264214
     4  Na   0.156545  -0.041875   0.264214  10.576643
 Mulliken charges:
               1
     1  Na  -0.061520
     2  Na  -0.055915
     3  Na   0.072962
     4  Na   0.044473
 Sum of Mulliken charges =  -0.00000
 Mulliken charges with hydrogens summed into heavy atoms:
               1
     1  Na  -0.061520
     2  Na  -0.055915
     3  Na   0.072962
     4  Na   0.044473
 Electronic spatial extent (au):  <R**2>=           2124.1797
 Charge=             -0.0000 electrons
 Dipole moment (field-independent basis, Debye):
    X=              1.9644    Y=              0.0553    Z=             -0.1067  Tot=              1.9681
 Quadrupole moment (field-independent basis, Debye-Ang):
   XX=            -36.2734   YY=            -36.2647   ZZ=            -43.5658
   XY=             -4.3787   XZ=              0.3090   YZ=              0.3538
 Traceless Quadrupole moment (field-independent basis, Debye-Ang):
   XX=              2.4279   YY=              2.4366   ZZ=             -4.8645
   XY=             -4.3787   XZ=              0.3090   YZ=              0.3538
 Octapole moment (field-independent basis, Debye-Ang**2):
  XXX=             17.1019  YYY=             10.4200  ZZZ=              1.4891  XYY=             22.0236
  XXY=            -13.0296  XXZ=            -26.2321  XZZ=             10.2440  YZZ=             -1.0557
  YYZ=              3.7427  XYZ=              6.7524
 Hexadecapole moment (field-independent basis, Debye-Ang**3):
 XXXX=          -2728.2768 YYYY=           -342.7086 ZZZZ=           -282.1423 XXXY=           -168.5269
 XXXZ=             14.4968 YYYX=             -7.1246 YYYZ=              4.4431 ZZZX=             -0.7265
 ZZZY=              1.3194 XXYY=           -603.7619 XXZZ=           -596.1386 YYZZ=           -105.1138
 XXYZ=             19.4894 YYXZ=              0.9893 ZZXY=             -8.4677
 N-N= 7.905852707374D+01 E-N=-1.717147581880D+03  KE= 6.472472072091D+02
 No NMR shielding tensors so no spin-rotation constants.
 Leave Link  601 at Fri Oct  6 22:04:19 2023, MaxMem=  1610612736 cpu:               9.0 elap:               5.6
 (Enter /home/sekinelabo/g16/l701.exe)
 ... and contract with generalized density number  0.
 Compute integral first derivatives.
 Leave Link  701 at Fri Oct  6 22:04:24 2023, MaxMem=  1610612736 cpu:               7.2 elap:               4.6
 (Enter /home/sekinelabo/g16/l702.exe)
 L702 exits ... SP integral derivatives will be done elsewhere.
 Leave Link  702 at Fri Oct  6 22:04:25 2023, MaxMem=  1610612736 cpu:               0.7 elap:               0.5
 (Enter /home/sekinelabo/g16/l703.exe)
 Integral derivatives from FoFJK, PRISM(SPDF).
 Compute integral first derivatives, UseDBF=F ICtDFT=           0.
 Calling FoFJK, ICntrl=      2127 FMM=F ISym2X=0 I1Cent= 0 IOpClX= 0 NMat=1 NMatS=1 NMatT=0.
 FoFJK:  IHMeth= 1 ICntrl=    2127 DoSepK=F KAlg= 0 I1Cent=           0 FoldK=F
 IRaf=         0 NMat=       1 IRICut=       1 DoRegI=T DoRafI=F ISym2E= 0 IDoP0=0 IntGTp=1.
 FoFCou: FMM=F IPFlag=           0 FMFlag=      100000 FMFlg1=         800
         NFxFlg=           0 DoJE=F BraDBF=F KetDBF=F FulRan=T
         wScrn=  0.000000 ICntrl=      2127 IOpCl=  0 I1Cent=           0 NGrid=           0
         NMat0=    1 NMatS0=      1 NMatT0=    0 NMatD0=    1 NMtDS0=    0 NMtDT0=    0
 Symmetry not used in FoFCou.
 Leave Link  703 at Fri Oct  6 22:04:33 2023, MaxMem=  1610612736 cpu:              12.9 elap:               7.9
 (Enter /home/sekinelabo/g16/l716.exe)
 Dipole        = 7.72853224D-01 2.17619798D-02-4.19722592D-02
 ***** Axes restored to original set *****
 -------------------------------------------------------------------
 Center     Atomic                   Forces (Hartrees/Bohr)
 Number     Number              X              Y              Z
 -------------------------------------------------------------------
      1       11          -0.004154248   -0.000354025   -0.003578082
      2       11           0.003965761   -0.000175772    0.005051228
      3       11          -0.000905575   -0.002646323   -0.003621524
      4       11           0.001094063    0.003176120    0.002148377
 -------------------------------------------------------------------
 Cartesian Forces:  Max     0.005051228 RMS     0.003004131
 Z-matrix is all fixed cartesians, so copy forces.
 Force constants in Cartesian coordinates: 
                1             2             3             4             5 
      1  0.180984D-02
      2  0.432295D-02  0.103257D-01
      3 -0.259066D-02 -0.618800D-02  0.129646D-01
      4  0.000000D+00  0.000000D+00  0.000000D+00  0.100000D+01
      5  0.000000D+00  0.000000D+00  0.000000D+00  0.000000D+00  0.100000D+01
      6  0.000000D+00  0.000000D+00  0.000000D+00  0.000000D+00  0.000000D+00
      7  0.461346D-03  0.110196D-02  0.112310D-02  0.000000D+00  0.000000D+00
      8  0.110196D-02  0.263212D-02  0.268261D-02  0.000000D+00  0.000000D+00
      9 -0.111909D-02 -0.267302D-02 -0.272430D-02  0.000000D+00  0.000000D+00
     10 -0.227119D-02 -0.542492D-02  0.146756D-02  0.000000D+00  0.000000D+00
     11 -0.542492D-02 -0.129578D-01  0.350538D-02  0.000000D+00  0.000000D+00
     12  0.370975D-02  0.886102D-02 -0.102403D-01  0.000000D+00  0.000000D+00
                6             7             8             9            10 
      6  0.100000D+01
      7  0.000000D+00  0.179335D-02
      8  0.000000D+00  0.428356D-02  0.102316D-01
      9  0.000000D+00  0.256349D-02  0.612310D-02  0.128929D-01
     10  0.000000D+00 -0.225470D-02 -0.538552D-02 -0.144440D-02  0.452589D-02
     11  0.000000D+00 -0.538552D-02 -0.128637D-01 -0.345007D-02  0.108104D-01
     12  0.000000D+00 -0.368659D-02 -0.880571D-02 -0.101686D-01 -0.231573D-04
               11            12 
     11  0.258216D-01
     12 -0.553131D-04  0.204089D-01
 Leave Link  716 at Fri Oct  6 22:04:33 2023, MaxMem=  1610612736 cpu:               0.8 elap:               0.6
 (Enter /home/sekinelabo/g16/l103.exe)

 GradGradGradGradGradGradGradGradGradGradGradGradGradGradGradGradGradGrad
 Berny optimization.
 Search for a local minimum.
 Step number   1 out of a maximum of    2
 All quantities printed in internal units (Hartrees-Bohrs-Radians)
 Second derivative matrix not updated -- first step.
 The second derivative matrix:
                          X1        Y1        Z1        X2        Y2
           X1           0.00181
           Y1           0.00432   0.01033
           Z1          -0.00259  -0.00619   0.01296
           X2           0.00000   0.00000   0.00000   1.00000
           Y2           0.00000   0.00000   0.00000  -0.00000   1.00000
           Z2           0.00000   0.00000   0.00000   0.00000  -0.00000
           X3           0.00046   0.00110   0.00112   0.00000   0.00000
           Y3           0.00110   0.00263   0.00268   0.00000   0.00000
           Z3          -0.00112  -0.00267  -0.00272   0.00000   0.00000
           X4          -0.00227  -0.00542   0.00147   0.00000   0.00000
           Y4          -0.00542  -0.01296   0.00351   0.00000   0.00000
           Z4           0.00371   0.00886  -0.01024   0.00000   0.00000
                          Z2        X3        Y3        Z3        X4
           Z2           1.00000
           X3           0.00000   0.00179
           Y3           0.00000   0.00428   0.01023
           Z3           0.00000   0.00256   0.00612   0.01289
           X4           0.00000  -0.00225  -0.00539  -0.00144   0.00453
           Y4           0.00000  -0.00539  -0.01286  -0.00345   0.01081
           Z4           0.00000  -0.00369  -0.00881  -0.01017  -0.00002
                          Y4        Z4
           Y4           0.02582
           Z4          -0.00006   0.02041
 ITU=  0
     Eigenvalues ---    0.01429   0.03960   0.04689   0.17457   0.20044
     Eigenvalues ---    0.75000
 Angle between quadratic step and forces=  47.41 degrees.
 Linear search not attempted -- first point.
 B after Tr=     0.000000    0.000000   -0.000000
         Rot=    1.000000    0.000000   -0.000000    0.000000 Ang=   0.00 deg.
 Variable       Old X    -DE/DX   Delta X   Delta X   Delta X     New X
                                 (Linear)    (Quad)   (Total)
    X1       -0.00000  -0.00415   0.00000  -0.02003  -0.02003  -0.02003
    Y1       -0.00000  -0.00035   0.00000  -0.00755  -0.00755  -0.00755
    Z1        0.00000  -0.00358   0.00000  -0.07383  -0.07383  -0.07383
    X2       -5.53816   0.00397   0.00000   0.01123   0.01123  -5.52692
    Y2        0.00000  -0.00018   0.00000   0.00203   0.00203   0.00203
    Z2       -7.12587   0.00505   0.00000   0.00452   0.00452  -7.12135
    X3        0.00000  -0.00091   0.00000  -0.02707  -0.02707  -0.02707
    Y3       -0.00000  -0.00265   0.00000  -0.07367  -0.07367  -0.07367
    Z3        9.56019  -0.00362   0.00000  -0.01306  -0.01306   9.54713
    X4       -1.73233   0.00109   0.00000   0.03587   0.03587  -1.69646
    Y4       -4.13781   0.00318   0.00000   0.07920   0.07920  -4.05861
    Z4        4.77154   0.00215   0.00000   0.08237   0.08237   4.85391
         Item               Value     Threshold  Converged?
 Maximum Force            0.005051     0.000450     NO 
 RMS     Force            0.003004     0.000300     NO 
 Maximum Displacement     0.082373     0.001800     NO 
 RMS     Displacement     0.047201     0.001200     NO 
 Predicted change in Energy=-5.757952D-04
 GradGradGradGradGradGradGradGradGradGradGradGradGradGradGradGradGradGrad

 Leave Link  103 at Fri Oct  6 22:04:35 2023, MaxMem=  1610612736 cpu:               3.4 elap:               2.3
 (Enter /home/sekinelabo/g16/l9999.exe)
 1\1\GINC-SEKINELABO-XA7R-R37\Force\RB3LYP\6-311+G(d)\Na4\SEKINELABO\06
 -Oct-2023\0\\#p B3LYP/6-311+g(d) force\\\0,1\Na,0.,0.,0.\Na,-2.9306657
 358,0.,-3.7708466624\Na,0.,0.,5.0590346817\Na,-0.9167105647,-2.1896346
 835,2.5249892324\\Version=ES64L-G16RevB.01\State=1-A\HF=-649.185863\RM
 SD=4.561e-09\RMSF=3.004e-03\Dipole=0.178667,-0.0605143,0.7509684\Quadr
 upole=-1.3485236,0.5339899,0.8145337,2.567911,2.8793914,2.0643111\PG=C
 01 [X(Na4)]\\@


      THE ONE-EYED VIEW OF OUR UNIVERSE SAYS YOU MUST NOT LOOK
      FAR AFIELD FOR PROBLEMS.  SUCH PROBLEMS MAY NEVER ARRIVE. 
      INSTEAD, TEND TO THE WOLF WITHIN YOUR FENCES.
      THE PACKS RANGING OUTSIDE MAY NOT EVEN EXIST.

                              -- THE AZHAR BOOK SHAMRA I:4
                                 CHILDREN OF DUNE, BY FRANK HERBERT
 Job cpu time:       0 days  0 hours  3 minutes 49.3 seconds.
 Elapsed time:       0 days  0 hours  2 minutes 24.2 seconds.
 File lengths (MBytes):  RWF=     10 Int=      0 D2E=      0 Chk=      2 Scr=      1
 Normal termination of Gaussian 16 at Fri Oct  6 22:04:36 2023.
 Initial command:
 /home/sekinelabo/g16/l1.exe "/home/sekinelabo/g16temp/Gau-708791.inp" -scrdir="/home/sekinelabo/g16temp/"
 Entering Link 1 = /home/sekinelabo/g16/l1.exe PID=    713574.
  
 Copyright (c) 1988-2017, Gaussian, Inc.  All Rights Reserved.
  
 This is part of the Gaussian(R) 16 program.  It is based on
 the Gaussian(R) 09 system (copyright 2009, Gaussian, Inc.),
 the Gaussian(R) 03 system (copyright 2003, Gaussian, Inc.),
 the Gaussian(R) 98 system (copyright 1998, Gaussian, Inc.),
 the Gaussian(R) 94 system (copyright 1995, Gaussian, Inc.),
 the Gaussian 92(TM) system (copyright 1992, Gaussian, Inc.),
 the Gaussian 90(TM) system (copyright 1990, Gaussian, Inc.),
 the Gaussian 88(TM) system (copyright 1988, Gaussian, Inc.),
 the Gaussian 86(TM) system (copyright 1986, Carnegie Mellon
 University), and the Gaussian 82(TM) system (copyright 1983,
 Carnegie Mellon University). Gaussian is a federally registered
 trademark of Gaussian, Inc.
  
 This software contains proprietary and confidential information,
 including trade secrets, belonging to Gaussian, Inc.
  
 This software is provided under written license and may be
 used, copied, transmitted, or stored only in accord with that
 written license.
  
 The following legend is applicable only to US Government
 contracts under FAR:
  
                    RESTRICTED RIGHTS LEGEND
  
 Use, reproduction and disclosure by the US Government is
 subject to restrictions as set forth in subparagraphs (a)
 and (c) of the Commercial Computer Software - Restricted
 Rights clause in FAR 52.227-19.
  
 Gaussian, Inc.
 340 Quinnipiac St., Bldg. 40, Wallingford CT 06492
  
  
 ---------------------------------------------------------------
 Warning -- This program may not be used in any manner that
 competes with the business of Gaussian, Inc. or will provide
 assistance to any competitor of Gaussian, Inc.  The licensee
 of this program is prohibited from giving any competitor of
 Gaussian, Inc. access to this program.  By using this program,
 the user acknowledges that Gaussian, Inc. is engaged in the
 business of creating and licensing software in the field of
 computational chemistry and represents and warrants to the
 licensee that it is not a competitor of Gaussian, Inc. and that
 it will not use this program in any manner prohibited above.
 ---------------------------------------------------------------
  

 Cite this work as:
 Gaussian 16, Revision B.01,
 M. J. Frisch, G. W. Trucks, H. B. Schlegel, G. E. Scuseria, 
 M. A. Robb, J. R. Cheeseman, G. Scalmani, V. Barone, 
 G. A. Petersson, H. Nakatsuji, X. Li, M. Caricato, A. V. Marenich, 
 J. Bloino, B. G. Janesko, R. Gomperts, B. Mennucci, H. P. Hratchian, 
 J. V. Ortiz, A. F. Izmaylov, J. L. Sonnenberg, D. Williams-Young, 
 F. Ding, F. Lipparini, F. Egidi, J. Goings, B. Peng, A. Petrone, 
 T. Henderson, D. Ranasinghe, V. G. Zakrzewski, J. Gao, N. Rega, 
 G. Zheng, W. Liang, M. Hada, M. Ehara, K. Toyota, R. Fukuda, 
 J. Hasegawa, M. Ishida, T. Nakajima, Y. Honda, O. Kitao, H. Nakai, 
 T. Vreven, K. Throssell, J. A. Montgomery, Jr., J. E. Peralta, 
 F. Ogliaro, M. J. Bearpark, J. J. Heyd, E. N. Brothers, K. N. Kudin, 
 V. N. Staroverov, T. A. Keith, R. Kobayashi, J. Normand, 
 K. Raghavachari, A. P. Rendell, J. C. Burant, S. S. Iyengar, 
 J. Tomasi, M. Cossi, J. M. Millam, M. Klene, C. Adamo, R. Cammi, 
 J. W. Ochterski, R. L. Martin, K. Morokuma, O. Farkas, 
 J. B. Foresman, and D. J. Fox, Gaussian, Inc., Wallingford CT, 2016.
 
 ******************************************
 Gaussian 16:  ES64L-G16RevB.01 20-Dec-2017
                 6-Oct-2023 
 ******************************************
 %NProcShared=16
 Will use up to   16 processors via shared memory.
 %mem=12GB
 %Chk=checkpoint.chk
 -------------------------
 #p B3LYP/6-311+g(d) force
 -------------------------
 1/10=7,30=1,38=1/1,3;
 2/12=2,17=6,18=5,40=1/2;
 3/5=4,6=6,7=11,11=2,25=1,30=1,71=1,74=-5/1,2,3;
 4//1;
 5/5=2,38=5/2;
 6/7=2,8=2,9=2,10=2,28=1/1;
 7/29=1/1,2,3,16;
 1/10=7,30=1/3;
 99//99;
 Leave Link    1 at Fri Oct  6 22:04:37 2023, MaxMem=  1610612736 cpu:               0.5 elap:               0.4
 (Enter /home/sekinelabo/g16/l101.exe)


 Symbolic Z-matrix:
 Charge =  0 Multiplicity = 1
 Na                    0.        0.        0. 
 Na                   -4.55552   0.        1.85605 
 Na                    0.        0.        2.33778 
 Na                   -0.2025   -3.21884   3.30403 
 
 ITRead=  0  0  0  0
 MicOpt= -1 -1 -1 -1
 NAtoms=      4 NQM=        4 NQMF=       0 NMMI=      0 NMMIF=      0
                NMic=       0 NMicF=      0.
                    Isotopes and Nuclear Properties:
 (Nuclear quadrupole moments (NQMom) in fm**2, nuclear magnetic moments (NMagM)
  in nuclear magnetons)

  Atom         1           2           3           4
 IAtWgt=          23          23          23          23
 AtmWgt=  22.9897697  22.9897697  22.9897697  22.9897697
 NucSpn=           3           3           3           3
 AtZEff=  -0.0000000  -0.0000000  -0.0000000  -0.0000000
 NQMom=   10.4000000  10.4000000  10.4000000  10.4000000
 NMagM=    2.2175200   2.2175200   2.2175200   2.2175200
 AtZNuc=  11.0000000  11.0000000  11.0000000  11.0000000
 Leave Link  101 at Fri Oct  6 22:04:38 2023, MaxMem=  1610612736 cpu:               2.4 elap:               1.6
 (Enter /home/sekinelabo/g16/l103.exe)

 GradGradGradGradGradGradGradGradGradGradGradGradGradGradGradGradGradGrad
 Berny optimization.
 Initialization pass.
 Trust Radius=3.00D-01 FncErr=1.00D-07 GrdErr=1.00D-07 EigMax=2.50D+02 EigMin=1.00D-04
 Number of steps in this run=      2 maximum allowed number of steps=      2.
 GradGradGradGradGradGradGradGradGradGradGradGradGradGradGradGradGradGrad

 Leave Link  103 at Fri Oct  6 22:04:39 2023, MaxMem=  1610612736 cpu:               0.5 elap:               0.4
 (Enter /home/sekinelabo/g16/l202.exe)
                          Input orientation:                          
 ---------------------------------------------------------------------
 Center     Atomic      Atomic             Coordinates (Angstroms)
 Number     Number       Type             X           Y           Z
 ---------------------------------------------------------------------
      1         11           0        0.000000    0.000000    0.000000
      2         11           0       -4.555519    0.000000    1.856051
      3         11           0        0.000000    0.000000    2.337781
      4         11           0       -0.202496   -3.218836    3.304033
 ---------------------------------------------------------------------
                    Distance matrix (angstroms):
                    1          2          3          4
     1  Na   0.000000
     2  Na   4.919113   0.000000
     3  Na   2.337781   4.580918   0.000000
     4  Na   4.617201   5.604138   3.366832   0.000000
 Stoichiometry    Na4
 Framework group  C1[X(Na4)]
 Deg. of freedom     6
 Full point group                 C1      NOp   1
 Largest Abelian subgroup         C1      NOp   1
 Largest concise Abelian subgroup C1      NOp   1
                         Standard orientation:                         
 ---------------------------------------------------------------------
 Center     Atomic      Atomic             Coordinates (Angstroms)
 Number     Number       Type             X           Y           Z
 ---------------------------------------------------------------------
[...]
 DIIS: error= 8.80D-04 at cycle   4 NSaved=   4.
 NSaved= 4 IEnMin= 3 EnMin= -649.169915850163     IErMin= 3 ErrMin= 4.44D-04
 ErrMax= 8.80D-04  0.00D+00 EMaxC= 1.00D-01 BMatC= 7.94D-05 BMatP= 2.25D-05
 IDIUse=3 WtCom= 2.52D-01 WtEn= 7.48D-01
 Coeff-Com:  0.382D-02-0.350D-02 0.663D+00 0.337D+00
 Coeff-En:   0.000D+00 0.000D+00 0.764D+00 0.236D+00
 Coeff:      0.963D-03-0.881D-03 0.739D+00 0.261D+00
 Gap=     0.049 Goal=   None    Shift=    0.000
 RMSDP=5.17D-04 MaxDP=2.04D-02 DE= 3.99D-04 OVMax= 3.11D-02

 Cycle   5  Pass 1  IDiag  1:
 E= -649.170021598355     Delta-E=       -0.000505166713 Rises=F Damp=F
 DIIS: error= 1.48D-04 at cycle   5 NSaved=   5.
 NSaved= 5 IEnMin= 5 EnMin= -649.170021598355     IErMin= 5 ErrMin= 1.48D-04
 ErrMax= 1.48D-04  0.00D+00 EMaxC= 1.00D-01 BMatC= 2.16D-06 BMatP= 2.25D-05
 IDIUse=3 WtCom= 9.99D-01 WtEn= 1.48D-03
 Coeff-Com: -0.976D-03 0.102D-02 0.145D+00-0.790D-01 0.934D+00
 Coeff-En:   0.000D+00 0.000D+00 0.104D+00 0.000D+00 0.896D+00
 Coeff:     -0.974D-03 0.102D-02 0.145D+00-0.789D-01 0.934D+00
 Gap=     0.049 Goal=   None    Shift=    0.000
 RMSDP=3.23D-04 MaxDP=1.73D-02 DE=-5.05D-04 OVMax= 5.60D-03

 Cycle   6  Pass 1  IDiag  1:
 E= -649.170034562401     Delta-E=       -0.000012964047 Rises=F Damp=F
 DIIS: error= 1.25D-05 at cycle   6 NSaved=   6.
 NSaved= 6 IEnMin= 6 EnMin= -649.170034562401     IErMin= 6 ErrMin= 1.25D-05
 ErrMax= 1.25D-05  0.00D+00 EMaxC= 1.00D-01 BMatC= 2.11D-08 BMatP= 2.16D-06
 IDIUse=1 WtCom= 1.00D+00 WtEn= 0.00D+00
 Coeff-Com: -0.124D-02 0.151D-02 0.309D-01-0.260D-01 0.259D+00 0.735D+00
 Coeff:     -0.124D-02 0.151D-02 0.309D-01-0.260D-01 0.259D+00 0.735D+00
 Gap=     0.049 Goal=   None    Shift=    0.000
 RMSDP=7.39D-06 MaxDP=1.66D-04 DE=-1.30D-05 OVMax= 1.49D-04

 Cycle   7  Pass 1  IDiag  1:
 E= -649.170034581280     Delta-E=       -0.000000018878 Rises=F Damp=F
 DIIS: error= 3.14D-06 at cycle   7 NSaved=   7.
 NSaved= 7 IEnMin= 7 EnMin= -649.170034581280     IErMin= 7 ErrMin= 3.14D-06
 ErrMax= 3.14D-06  0.00D+00 EMaxC= 1.00D-01 BMatC= 1.81D-09 BMatP= 2.11D-08
 IDIUse=1 WtCom= 1.00D+00 WtEn= 0.00D+00
 Coeff-Com: -0.472D-03 0.597D-03-0.274D-02-0.299D-02 0.918D-02 0.232D+00
 Coeff-Com:  0.765D+00
 Coeff:     -0.472D-03 0.597D-03-0.274D-02-0.299D-02 0.918D-02 0.232D+00
 Coeff:      0.765D+00
 Gap=     0.049 Goal=   None    Shift=    0.000
 RMSDP=4.87D-06 MaxDP=2.07D-04 DE=-1.89D-08 OVMax= 4.83D-05

 Cycle   8  Pass 1  IDiag  1:
 E= -649.170034582879     Delta-E=       -0.000000001599 Rises=F Damp=F
 DIIS: error= 4.39D-07 at cycle   8 NSaved=   8.
 NSaved= 8 IEnMin= 8 EnMin= -649.170034582879     IErMin= 8 ErrMin= 4.39D-07
 ErrMax= 4.39D-07  0.00D+00 EMaxC= 1.00D-01 BMatC= 3.33D-11 BMatP= 1.81D-09
 IDIUse=1 WtCom= 1.00D+00 WtEn= 0.00D+00
 Coeff-Com:  0.917D-04-0.122D-03-0.102D-02 0.138D-02-0.111D-01-0.872D-02
 Coeff-Com:  0.516D-01 0.968D+00
 Coeff:      0.917D-04-0.122D-03-0.102D-02 0.138D-02-0.111D-01-0.872D-02
 Coeff:      0.516D-01 0.968D+00
 Gap=     0.049 Goal=   None    Shift=    0.000
 RMSDP=2.18D-06 MaxDP=1.05D-04 DE=-1.60D-09 OVMax= 1.57D-05

 Cycle   9  Pass 1  IDiag  1:
 E= -649.170034582979     Delta-E=       -0.000000000101 Rises=F Damp=F
 DIIS: error= 1.21D-07 at cycle   9 NSaved=   9.
 NSaved= 9 IEnMin= 9 EnMin= -649.170034582979     IErMin= 9 ErrMin= 1.21D-07
 ErrMax= 1.21D-07  0.00D+00 EMaxC= 1.00D-01 BMatC= 3.14D-12 BMatP= 3.33D-11
 IDIUse=1 WtCom= 1.00D+00 WtEn= 0.00D+00
 Coeff-Com:  0.587D-04-0.766D-04-0.140D-03 0.583D-03-0.400D-02-0.129D-01
 Coeff-Com: -0.266D-01 0.303D+00 0.740D+00
 Coeff:      0.587D-04-0.766D-04-0.140D-03 0.583D-03-0.400D-02-0.129D-01
 Coeff:     -0.266D-01 0.303D+00 0.740D+00
 Gap=     0.049 Goal=   None    Shift=    0.000
 RMSDP=6.08D-07 MaxDP=3.04D-05 DE=-1.01D-10 OVMax= 3.34D-06

 Cycle  10  Pass 1  IDiag  1:
 E= -649.170034582988     Delta-E=       -0.000000000008 Rises=F Damp=F
 DIIS: error= 1.28D-08 at cycle  10 NSaved=  10.
 NSaved=10 IEnMin=10 EnMin= -649.170034582988     IErMin=10 ErrMin= 1.28D-08
 ErrMax= 1.28D-08  0.00D+00 EMaxC= 1.00D-01 BMatC= 5.71D-14 BMatP= 3.14D-12
 IDIUse=1 WtCom= 1.00D+00 WtEn= 0.00D+00
 Coeff-Com:  0.441D-05-0.561D-05 0.113D-04 0.460D-04-0.284D-03-0.141D-02
 Coeff-Com: -0.587D-02 0.217D-01 0.123D+00 0.863D+00
 Coeff:      0.441D-05-0.561D-05 0.113D-04 0.460D-04-0.284D-03-0.141D-02
 Coeff:     -0.587D-02 0.217D-01 0.123D+00 0.863D+00
 Gap=     0.049 Goal=   None    Shift=    0.000
 RMSDP=8.87D-08 MaxDP=3.96D-06 DE=-8.41D-12 OVMax= 5.08D-07

 Cycle  11  Pass 1  IDiag  1:
 E= -649.170034582984     Delta-E=        0.000000000004 Rises=F Damp=F
 DIIS: error= 5.77D-09 at cycle  11 NSaved=  11.
 NSaved=11 IEnMin=10 EnMin= -649.170034582988     IErMin=11 ErrMin= 5.77D-09
 ErrMax= 5.77D-09  0.00D+00 EMaxC= 1.00D-01 BMatC= 1.05D-14 BMatP= 5.71D-14
 IDIUse=1 WtCom= 1.00D+00 WtEn= 0.00D+00
 Coeff-Com: -0.303D-05 0.400D-05 0.121D-04-0.234D-04 0.183D-03 0.341D-03
 Coeff-Com: -0.771D-05-0.138D-01-0.145D-01 0.315D+00 0.713D+00
 Coeff:     -0.303D-05 0.400D-05 0.121D-04-0.234D-04 0.183D-03 0.341D-03
 Coeff:     -0.771D-05-0.138D-01-0.145D-01 0.315D+00 0.713D+00
 Gap=     0.049 Goal=   None    Shift=    0.000
 RMSDP=1.44D-08 MaxDP=4.13D-07 DE= 3.75D-12 OVMax= 2.67D-07

 Cycle  12  Pass 1  IDiag  1:
 E= -649.170034582991     Delta-E=       -0.000000000007 Rises=F Damp=F
 DIIS: error= 1.04D-09 at cycle  12 NSaved=  12.
 NSaved=12 IEnMin=12 EnMin= -649.170034582991     IErMin=12 ErrMin= 1.04D-09
 ErrMax= 1.04D-09  0.00D+00 EMaxC= 1.00D-01 BMatC= 1.89D-16 BMatP= 1.05D-14
 IDIUse=1 WtCom= 1.00D+00 WtEn= 0.00D+00
 Coeff-Com: -0.767D-06 0.101D-05 0.209D-05-0.783D-05 0.546D-04 0.858D-04
 Coeff-Com:  0.143D-03-0.394D-02-0.708D-02 0.359D-01 0.150D+00 0.825D+00
 Coeff:     -0.767D-06 0.101D-05 0.209D-05-0.783D-05 0.546D-04 0.858D-04
 Coeff:      0.143D-03-0.394D-02-0.708D-02 0.359D-01 0.150D+00 0.825D+00
 Gap=     0.049 Goal=   None    Shift=    0.000
 RMSDP=3.47D-09 MaxDP=1.54D-07 DE=-6.71D-12 OVMax= 3.45D-08

 SCF Done:  E(RB3LYP) =  -649.170034583     A.U. after   12 cycles
            NFock= 12  Conv=0.35D-08     -V/T= 2.0027
 KE= 6.473929641550D+02 PE=-1.717013638337D+03 EE= 3.414104693400D+02
 Leave Link  502 at Sat Oct  7 02:12:39 2023, MaxMem=  1610612736 cpu:              17.9 elap:               1.3
 (Enter /home/sekinelabo/g16/l601.exe)
 Copying SCF densities to generalized density rwf, IOpCl= 0 IROHF=0.

 **********************************************************************

            Population analysis using the SCF Density.

 **********************************************************************

 Orbital symmetries:
       Occupied  (A) (A) (A) (A) (A) (A) (A) (A) (A) (A) (A) (A)
                 (A) (A) (A) (A) (A) (A) (A) (A) (A) (A)
       Virtual   (A) (A) (A) (A) (A) (A) (A) (A) (A) (A) (A) (A)
                 (A) (A) (A) (A) (A) (A) (A) (A) (A) (A) (A) (A)
                 (A) (A) (A) (A) (A) (A) (A) (A) (A) (A) (A) (A)
                 (A) (A) (A) (A) (A) (A) (A) (A) (A) (A) (A) (A)
                 (A) (A) (A) (A) (A) (A) (A) (A) (A) (A) (A) (A)
                 (A) (A) (A) (A) (A) (A) (A) (A) (A) (A) (A) (A)
                 (A) (A) (A) (A) (A) (A) (A) (A) (A) (A) (A) (A)
                 (A) (A) (A) (A) (A) (A) (A) (A) (A) (A) (A) (A)
                 (A) (A)
 The electronic state is 1-A.
 Alpha  occ. eigenvalues --  -38.45824 -38.45606 -38.45376 -38.45286  -2.21510
 Alpha  occ. eigenvalues --   -2.21470  -2.21295  -2.21103  -1.16269  -1.15190
 Alpha  occ. eigenvalues --   -1.15190  -1.15128  -1.14976  -1.14973  -1.14969
 Alpha  occ. eigenvalues --   -1.14969  -1.14914  -1.14642  -1.14642  -1.14188
 Alpha  occ. eigenvalues --   -0.14061  -0.12333
 Alpha virt. eigenvalues --   -0.07477  -0.04525  -0.03008  -0.02971  -0.02096
 Alpha virt. eigenvalues --   -0.01904  -0.01613  -0.00244  -0.00054   0.00155
 Alpha virt. eigenvalues --    0.00361   0.00968   0.01086   0.01161   0.01182
 Alpha virt. eigenvalues --    0.01413   0.01628   0.01789   0.01883   0.02060
 Alpha virt. eigenvalues --    0.02294   0.02405   0.02490   0.02963   0.03306
 Alpha virt. eigenvalues --    0.03374   0.03709   0.03738   0.04139   0.05553
 Alpha virt. eigenvalues --    0.06831   0.07035   0.07568   0.07946   0.08043
 Alpha virt. eigenvalues --    0.08459   0.08617   0.08908   0.09134   0.09438
 Alpha virt. eigenvalues --    0.10523   0.10705   0.11910   0.12647   0.14110
 Alpha virt. eigenvalues --    0.17610   0.29675   0.29700   0.30341   0.30416
 Alpha virt. eigenvalues --    0.31798   0.31973   0.32313   0.34542   0.34589
 Alpha virt. eigenvalues --    0.34856   0.35304   0.37565   0.37991   0.38927
 Alpha virt. eigenvalues --    0.40336   0.40856   0.40911   0.42419   0.42534
 Alpha virt. eigenvalues --    0.43056   0.43328   0.43542   0.44147   0.44330
 Alpha virt. eigenvalues --    0.44962   0.46067   0.47904   0.48974   0.49523
 Alpha virt. eigenvalues --    0.59778   0.59982   0.88401   2.00631   2.04916
 Alpha virt. eigenvalues --    2.06030   2.12661   4.42275   4.42464   4.42820
 Alpha virt. eigenvalues --    4.43115   4.43250   4.43675   4.44799   4.47183
 Alpha virt. eigenvalues --    4.48503   4.48598   4.56074   4.76421  96.19630
 Alpha virt. eigenvalues --   96.24922  96.26481  96.34910
          Condensed to atoms (all electrons):
               1          2          3          4
     1  Na  13.924444  -1.715996   0.145260  -0.077029
     2  Na  -1.715996  11.528383  -0.196540   0.009436
     3  Na   0.145260  -0.196540  10.892885   0.274307
     4  Na  -0.077029   0.009436   0.274307  10.775414
 Mulliken charges:
               1
     1  Na  -1.276678
     2  Na   1.374717
     3  Na  -0.115911
     4  Na   0.017873
 Sum of Mulliken charges =   0.00000
 Mulliken charges with hydrogens summed into heavy atoms:
               1
     1  Na  -1.276678
     2  Na   1.374717
     3  Na  -0.115911
     4  Na   0.017873
 Electronic spatial extent (au):  <R**2>=           2685.4040
 Charge=              0.0000 electrons
 Dipole moment (field-independent basis, Debye):
    X=             -0.4962    Y=             -0.2743    Z=             -0.0584  Tot=              0.5700
 Quadrupole moment (field-independent basis, Debye-Ang):
   XX=            -29.0981   YY=            -37.4804   ZZ=            -45.0673
   XY=              4.3549   XZ=             -1.2942   YZ=              0.1351
 Traceless Quadrupole moment (field-independent basis, Debye-Ang):
   XX=              8.1172   YY=             -0.2651   ZZ=             -7.8520
   XY=              4.3549   XZ=             -1.2942   YZ=              0.1351
 Octapole moment (field-independent basis, Debye-Ang**2):
  XXX=             -3.0137  YYY=              3.2020  ZZZ=             -0.1469  XYY=            -17.2499
  XXY=            -69.6032  XXZ=             -8.8049  XZZ=              3.5617  YZZ=             -0.5912
  YYZ=             -0.7007  XYZ=              2.0974
 Hexadecapole moment (field-independent basis, Debye-Ang**3):
 XXXX=          -3023.1140 YYYY=           -422.1098 ZZZZ=           -197.3070 XXXY=            200.4703
 XXXZ=            -61.0599 YYYX=             18.4971 YYYZ=             -0.1723 ZZZX=             -6.1922
 ZZZY=              0.5358 XXYY=           -666.3897 XXZZ=           -733.6373 YYZZ=           -106.9722
 XXYZ=              7.0334 YYXZ=             -2.0586 ZZXY=              6.5897
 N-N= 7.904017025923D+01 E-N=-1.717013638398D+03  KE= 6.473929641550D+02
 No NMR shielding tensors so no spin-rotation constants.
 Leave Link  601 at Sat Oct  7 02:12:39 2023, MaxMem=  1610612736 cpu:               0.9 elap:               0.1
 (Enter /home/sekinelabo/g16/l701.exe)
 ... and contract with generalized density number  0.
 Compute integral first derivatives.
 Leave Link  701 at Sat Oct  7 02:12:40 2023, MaxMem=  1610612736 cpu:               1.3 elap:               0.1
 (Enter /home/sekinelabo/g16/l702.exe)
 L702 exits ... SP integral derivatives will be done elsewhere.
 Leave Link  702 at Sat Oct  7 02:12:40 2023, MaxMem=  1610612736 cpu:               0.5 elap:               0.0
 (Enter /home/sekinelabo/g16/l703.exe)
 Integral derivatives from FoFJK, PRISM(SPDF).
 Compute integral first derivatives, UseDBF=F ICtDFT=           0.
 Calling FoFJK, ICntrl=      2127 FMM=F ISym2X=0 I1Cent= 0 IOpClX= 0 NMat=1 NMatS=1 NMatT=0.
 FoFJK:  IHMeth= 1 ICntrl=    2127 DoSepK=F KAlg= 0 I1Cent=           0 FoldK=F
 IRaf=         0 NMat=       1 IRICut=       1 DoRegI=T DoRafI=F ISym2E= 0 IDoP0=0 IntGTp=1.
 FoFCou: FMM=F IPFlag=           0 FMFlag=      100000 FMFlg1=         800
         NFxFlg=           0 DoJE=F BraDBF=F KetDBF=F FulRan=T
         wScrn=  0.000000 ICntrl=      2127 IOpCl=  0 I1Cent=           0 NGrid=           0
         NMat0=    1 NMatS0=      1 NMatT0=    0 NMatD0=    1 NMtDS0=    0 NMtDT0=    0
 Symmetry not used in FoFCou.
 Leave Link  703 at Sat Oct  7 02:12:40 2023, MaxMem=  1610612736 cpu:               5.6 elap:               0.4
 (Enter /home/sekinelabo/g16/l716.exe)
 Dipole        =-1.95238233D-01-1.07919427D-01-2.29852829D-02
 ***** Axes restored to original set *****
 -------------------------------------------------------------------
 Center     Atomic                   Forces (Hartrees/Bohr)
 Number     Number              X              Y              Z
 -------------------------------------------------------------------
      1       11           0.007686402   -0.000186887    0.032228651
      2       11          -0.007675155    0.000107230   -0.031558539
      3       11           0.000848687   -0.007203080    0.003009455
      4       11          -0.000859935    0.007282738   -0.003679567
 -------------------------------------------------------------------
 Cartesian Forces:  Max     0.032228651 RMS     0.013789008
 Z-matrix is all fixed cartesians, so copy forces.
 Force constants in Cartesian coordinates: 
                1             2             3             4             5 
      1  0.845474D-02
      2  0.000000D+00  0.000000D+00
      3  0.347807D-01  0.000000D+00  0.143079D+00
      4 -0.845474D-02  0.000000D+00 -0.347807D-01  0.845474D-02
      5  0.000000D+00  0.000000D+00  0.000000D+00  0.000000D+00  0.000000D+00
      6 -0.347807D-01  0.000000D+00 -0.143079D+00  0.347807D-01  0.000000D+00
      7  0.000000D+00  0.000000D+00  0.000000D+00  0.000000D+00  0.000000D+00
      8  0.000000D+00  0.000000D+00  0.000000D+00  0.000000D+00  0.000000D+00
      9  0.000000D+00  0.000000D+00  0.000000D+00  0.000000D+00  0.000000D+00
     10  0.000000D+00  0.000000D+00  0.000000D+00  0.000000D+00  0.000000D+00
     11  0.000000D+00  0.000000D+00  0.000000D+00  0.000000D+00  0.000000D+00
     12  0.000000D+00  0.000000D+00  0.000000D+00  0.000000D+00  0.000000D+00
                6             7             8             9            10 
      6  0.143079D+00
      7  0.000000D+00  0.100000D+01
      8  0.000000D+00  0.000000D+00  0.100000D+01
      9  0.000000D+00  0.000000D+00  0.000000D+00  0.100000D+01
     10  0.000000D+00  0.000000D+00  0.000000D+00  0.000000D+00  0.100000D+01
     11  0.000000D+00  0.000000D+00  0.000000D+00  0.000000D+00  0.000000D+00
     12  0.000000D+00  0.000000D+00  0.000000D+00  0.000000D+00  0.000000D+00
               11            12 
     11  0.100000D+01
     12  0.000000D+00  0.100000D+01
 Leave Link  716 at Sat Oct  7 02:12:40 2023, MaxMem=  1610612736 cpu:               0.3 elap:               0.0
 (Enter /home/sekinelabo/g16/l103.exe)

 GradGradGradGradGradGradGradGradGradGradGradGradGradGradGradGradGradGrad
 Berny optimization.
 Search for a local minimum.
 Step number   1 out of a maximum of    2
 All quantities printed in internal units (Hartrees-Bohrs-Radians)
 Second derivative matrix not updated -- first step.
 The second derivative matrix:
                          X1        Y1        Z1        X2        Y2
           X1           0.00845
           Y1           0.00000  -0.00000
           Z1           0.03478  -0.00000   0.14308
           X2          -0.00845   0.00000  -0.03478   0.00845
           Y2          -0.00000   0.00000  -0.00000   0.00000  -0.00000
           Z2          -0.03478   0.00000  -0.14308   0.03478  -0.00000
           X3           0.00000   0.00000   0.00000   0.00000   0.00000
           Y3           0.00000   0.00000   0.00000   0.00000   0.00000
           Z3           0.00000   0.00000   0.00000   0.00000   0.00000
           X4           0.00000   0.00000   0.00000   0.00000   0.00000
           Y4           0.00000   0.00000   0.00000   0.00000   0.00000
           Z4           0.00000   0.00000   0.00000   0.00000   0.00000
                          Z2        X3        Y3        Z3        X4
           Z2           0.14308
           X3           0.00000   1.00000
           Y3           0.00000   0.00000   1.00000
           Z3           0.00000   0.00000  -0.00000   1.00000
           X4           0.00000   0.00000   0.00000   0.00000   1.00000
           Y4           0.00000   0.00000   0.00000   0.00000   0.00000
           Z4           0.00000   0.00000   0.00000   0.00000   0.00000
                          Y4        Z4
           Y4           1.00000
           Z4          -0.00000   1.00000
 ITU=  0
     Eigenvalues ---    0.02145   0.07167   0.30307   0.50000   0.93242
     Eigenvalues ---    1.00000
 Angle between quadratic step and forces=  10.17 degrees.
 Linear search not attempted -- first point.
 B after Tr=     0.000000   -0.000000    0.000000
         Rot=    1.000000    0.000000   -0.000000    0.000000 Ang=   0.00 deg.
 Variable       Old X    -DE/DX   Delta X   Delta X   Delta X     New X
                                 (Linear)    (Quad)   (Total)
    X1       -0.00000   0.00769   0.00000   0.02177   0.02177   0.02177
    Y1        0.00000  -0.00019   0.00000  -0.00737  -0.00737  -0.00737
    Z1       -0.00000   0.03223   0.00000   0.10645   0.10645   0.10645
    X2       -1.02076  -0.00768   0.00000  -0.02278  -0.02278  -1.04354
    Y2        0.00000   0.00011   0.00000   0.00542   0.00542   0.00542
    Z2       -4.19915  -0.03156   0.00000  -0.10551  -0.10551  -4.30466
    X3        0.00000   0.00085   0.00000   0.00122   0.00122   0.00122
    Y3        0.00000  -0.00720   0.00000  -0.00639  -0.00639  -0.00639
    Z3        9.66186   0.00301   0.00000   0.00266   0.00266   9.66452
    X4        0.84599  -0.00086   0.00000  -0.00022  -0.00022   0.84577
    Y4       -7.03649   0.00728   0.00000   0.00834   0.00834  -7.02815
    Z4       13.17344  -0.00368   0.00000  -0.00360  -0.00360  13.16984
         Item               Value     Threshold  Converged?
 Maximum Force            0.032229     0.000450     NO 
 RMS     Force            0.013789     0.000300     NO 
 Maximum Displacement     0.106454     0.001800     NO 
 RMS     Displacement     0.044416     0.001200     NO 
 Predicted change in Energy=-3.616986D-03
 GradGradGradGradGradGradGradGradGradGradGradGradGradGradGradGradGradGrad

 Leave Link  103 at Sat Oct  7 02:12:40 2023, MaxMem=  1610612736 cpu:               0.1 elap:               0.0
 (Enter /home/sekinelabo/g16/l9999.exe)
 1\1\GINC-SEKINELABO-XA7R-R37\Force\RB3LYP\6-311+G(d)\Na4\SEKINELABO\07
 -Oct-2023\0\\#p B3LYP/6-311+g(d) force\\\0,1\Na,0.,0.,0.\Na,-0.5401627
 127,0.,-2.2220970229\Na,0.,0.,5.11283706\Na,0.4476777911,-3.7235483881
 ,6.9710852148\\Version=ES64L-G16RevB.01\State=1-A\HF=-649.1700346\RMSD
 =3.469e-09\RMSF=1.379e-02\Dipole=-0.0021022,-0.1651747,0.1516766\Quadr
 upole=-5.5809204,2.288171,3.2927494,-1.0503729,1.8085941,-4.324546\PG=
 C01 [X(Na4)]\\@


 MAN IS A SINGULAR CREATURE.  HE HAS A SET OF GIFTS
 WHICH MAKE HIM UNIQUE AMONG THE ANIMALS: SO THAT, 
 UNLIKE THEM, HE IS NOT A FIGURE IN THE LANDSCAPE --
 HE IS A SHAPER OF THE LANDSCAPE.

                       -- JACOB BRONOWSKI
 Job cpu time:       0 days  0 hours  0 minutes 33.2 seconds.
 Elapsed time:       0 days  0 hours  0 minutes  2.3 seconds.
 File lengths (MBytes):  RWF=     10 Int=      0 D2E=      0 Chk=      2 Scr=      1
 Normal termination of Gaussian 16 at Sat Oct  7 02:12:40 2023.
