 Entering Gaussian System, Link 0=g16
 Initial command:
 /home/sekinelabo/g16/l1.exe "/home/sekinelabo/g16temp/Gau-708794.inp" -scrdir="/home/sekinelabo/g16temp/"
 Entering Link 1 = /home/sekinelabo/g16/l1.exe PID=    708817.
  
 Copyright (c) 1988-2017, Gaussian, Inc.  All Rights Reserved.
  
 This is part of the Gaussian(R) 16 program.  It is based on
 the Gaussian(R) 09 system (copyright 2009, Gaussian, Inc.),
 the Gaussian(R) 03 system (copyright 2003, Gaussian, Inc.),
 the Gaussian(R) 98 system (copyright 1998, Gaussian, Inc.),
 the Gaussian(R) 94 system (copyright 1995, Gaussian, Inc.),
 the Gaussian 92(TM) system (copyright 1992, Gaussian, Inc.),
 the Gaussian 90(TM) system (copyright 1990, Gaussian, Inc.),
 the Gaussian 88(TM) system (copyright 1988, Gaussian, Inc.),
 the Gaussian 86(TM) system (copyright 1986, Carnegie Mellon
 University), and the Gaussian 82(TM) system (copyright 1983,
 Carnegie Mellon University). Gaussian is a federally registered
 trademark of Gaussian, Inc.
  
 This software contains proprietary and confidential information,
 including trade secrets, belonging to Gaussian, Inc.
  
 This software is provided under written license and may be
 used, copied, transmitted, or stored only in accord with that
 written license.
  
 The following legend is applicable only to US Government
 contracts under FAR:
  
                    RESTRICTED RIGHTS LEGEND
  
 Use, reproduction and disclosure by the US Government is
 subject to restrictions as set forth in subparagraphs (a)
 and (c) of the Commercial Computer Software - Restricted
 Rights clause in FAR 52.227-19.
  
 Gaussian, Inc.
 340 Quinnipiac St., Bldg. 40, Wallingford CT 06492
  
  
 ---------------------------------------------------------------
 Warning -- This program may not be used in any manner that
 competes with the business of Gaussian, Inc. or will provide
 assistance to any competitor of Gaussian, Inc.  The licensee
 of this program is prohibited from giving any competitor of
 Gaussian, Inc. access to this program.  By using this program,
 the user acknowledges that Gaussian, Inc. is engaged in the
 business of creating and licensing software in the field of
 computational chemistry and represents and warrants to the
 licensee that it is not a competitor of Gaussian, Inc. and that
 it will not use this program in any manner prohibited above.
 ---------------------------------------------------------------
  

 Cite this work as:
 Gaussian 16, Revision B.01,
 M. J. Frisch, G. W. Trucks, H. B. Schlegel, G. E. Scuseria, 
 M. A. Robb, J. R. Cheeseman, G. Scalmani, V. Barone, 
 G. A. Petersson, H. Nakatsuji, X. Li, M. Caricato, A. V. Marenich, 
 J. Bloino, B. G. Janesko, R. Gomperts, B. Mennucci, H. P. Hratchian, 
 J. V. Ortiz, A. F. Izmaylov, J. L. Sonnenberg, D. Williams-Young, 
 F. Ding, F. Lipparini, F. Egidi, J. Goings, B. Peng, A. Petrone, 
 T. Henderson, D. Ranasinghe, V. G. Zakrzewski, J. Gao, N. Rega, 
 G. Zheng, W. Liang, M. Hada, M. Ehara, K. Toyota, R. Fukuda, 
 J. Hasegawa, M. Ishida, T. Nakajima, Y. Honda, O. Kitao, H. Nakai, 
 T. Vreven, K. Throssell, J. A. Montgomery, Jr., J. E. Peralta, 
 F. Ogliaro, M. J. Bearpark, J. J. Heyd, E. N. Brothers, K. N. Kudin, 
 V. N. Staroverov, T. A. Keith, R. Kobayashi, J. Normand, 
 K. Raghavachari, A. P. Rendell, J. C. Burant, S. S. Iyengar, 
 J. Tomasi, M. Cossi, J. M. Millam, M. Klene, C. Adamo, R. Cammi, 
 J. W. Ochterski, R. L. Martin, K. Morokuma, O. Farkas, 
 J. B. Foresman, and D. J. Fox, Gaussian, Inc., Wallingford CT, 2016.
 
 ******************************************
 Gaussian 16:  ES64L-G16RevB.01 20-Dec-2017
                 6-Oct-2023 
 ******************************************
 %NProcShared=16
 Will use up to   16 processors via shared memory.
 %mem=12GB
 %Chk=checkpoint.chk
 -------------------------
 #p B3LYP/6-311+g(d) force
 -------------------------
 1/10=7,30=1,38=1/1,3;
 2/12=2,17=6,18=5,40=1/2;
 3/5=4,6=6,7=11,11=2,25=1,30=1,71=1,74=-5/1,2,3;
 4//1;
 5/5=2,38=5/2;
 6/7=2,8=2,9=2,10=2,28=1/1;
 7/29=1/1,2,3,16;
 1/10=7,30=1/3;
 99//99;
 Leave Link    1 at Fri Oct  6 21:59:34 2023, MaxMem=  1610612736 cpu:               0.5 elap:               0.2
 (Enter /home/sekinelabo/g16/l101.exe)


 Symbolic Z-matrix:
 Charge =  0 Multiplicity = 1
 Na                    0.        0.        0. 
 Na                   -3.39301   0.       -0.412 
 Na                    0.        0.        4.19745 
 Na                    0.86727  -1.60755   8.45141 
 
 ITRead=  0  0  0  0
 MicOpt= -1 -1 -1 -1
 NAtoms=      4 NQM=        4 NQMF=       0 NMMI=      0 NMMIF=      0
                NMic=       0 NMicF=      0.
                    Isotopes and Nuclear Properties:
 (Nuclear quadrupole moments (NQMom) in fm**2, nuclear magnetic moments (NMagM)
  in nuclear magnetons)

  Atom         1           2           3           4
 IAtWgt=          23          23          23          23
 AtmWgt=  22.9897697  22.9897697  22.9897697  22.9897697
 NucSpn=           3           3           3           3
 AtZEff=  -0.0000000  -0.0000000  -0.0000000  -0.0000000
 NQMom=   10.4000000  10.4000000  10.4000000  10.4000000
 NMagM=    2.2175200   2.2175200   2.2175200   2.2175200
 AtZNuc=  11.0000000  11.0000000  11.0000000  11.0000000
 Leave Link  101 at Fri Oct  6 21:59:35 2023, MaxMem=  1610612736 cpu:               2.1 elap:               0.9
 (Enter /home/sekinelabo/g16/l103.exe)

 GradGradGradGradGradGradGradGradGradGradGradGradGradGradGradGradGradGrad
 Berny optimization.
 Initialization pass.
 Trust Radius=3.00D-01 FncErr=1.00D-07 GrdErr=1.00D-07 EigMax=2.50D+02 EigMin=1.00D-04
 Number of steps in this run=      2 maximum allowed number of steps=      2.
 GradGradGradGradGradGradGradGradGradGradGradGradGradGradGradGradGradGrad

 Leave Link  103 at Fri Oct  6 21:59:35 2023, MaxMem=  1610612736 cpu:               0.6 elap:               0.4
 (Enter /home/sekinelabo/g16/l202.exe)
                          Input orientation:                          
 ---------------------------------------------------------------------
 Center     Atomic      Atomic             Coordinates (Angstroms)
 Number     Number       Type             X           Y           Z
 ---------------------------------------------------------------------
      1         11           0        0.000000    0.000000    0.000000
      2         11           0       -3.393007    0.000000   -0.412004
      3         11           0        0.000000    0.000000    4.197452
      4         11           0        0.867274   -1.607551    8.451408
 ---------------------------------------------------------------------
                    Distance matrix (angstroms):
                    1          2          3          4
     1  Na   0.000000
     2  Na   3.417930   0.000000
     3  Na   4.197452   5.723599   0.000000
     4  Na   8.646541   9.964652   4.629527   0.000000
 Stoichiometry    Na4
 Framework group  C1[X(Na4)]
 Deg. of freedom     6
 Full point group                 C1      NOp   1
 Largest Abelian subgroup         C1      NOp   1
 Largest concise Abelian subgroup C1      NOp   1
                         Standard orientation:                         
 ---------------------------------------------------------------------
 Center     Atomic      Atomic             Coordinates (Angstroms)
 Number     Number       Type             X           Y           Z
 ---------------------------------------------------------------------
      1         11           0       -2.710185    1.587749   -0.230139
      2         11           0       -4.198884   -1.484230   -0.059955
      3         11           0        1.204630    0.297457    0.562312
      4         11           0        5.704438   -0.400976   -0.272217
 ---------------------------------------------------------------------
 Rotational constants (GHZ):           4.0558610           0.3699912           0.3437999
 Leave Link  202 at Fri Oct  6 21:59:36 2023, MaxMem=  1610612736 cpu:               0.9 elap:               0.6
 (Enter /home/sekinelabo/g16/l301.exe)
 Standard basis: 6-311+G(d) (5D, 7F)
 Ernie: Thresh=  0.10000D-02 Tol=  0.10000D-05 Strict=F.
 There are   124 symmetry adapted cartesian basis functions of A   symmetry.
 There are   120 symmetry adapted basis functions of A   symmetry.
   120 basis functions,   200 primitive gaussians,   124 cartesian basis functions
    22 alpha electrons       22 beta electrons
       nuclear repulsion energy        72.8373480936 Hartrees.
 IExCor=  402 DFT=T Ex+Corr=B3LYP ExCW=0 ScaHFX=  0.200000
 ScaDFX=  0.800000  0.720000  1.000000  0.810000 ScalE2=  1.000000  1.000000
 IRadAn=      5 IRanWt=     -1 IRanGd=            0 ICorTp=0 IEmpDi=  4
 NAtoms=    4 NActive=    4 NUniq=    4 SFac= 1.00D+00 NAtFMM=   60 NAOKFM=F Big=F
 Integral buffers will be    131072 words long.
 Raffenetti 2 integral format.
 Two-electron integral symmetry is turned on.
 Leave Link  301 at Fri Oct  6 21:59:36 2023, MaxMem=  1610612736 cpu:               0.8 elap:               0.4
 (Enter /home/sekinelabo/g16/l302.exe)
 NPDir=0 NMtPBC=     1 NCelOv=     1 NCel=       1 NClECP=     1 NCelD=      1
         NCelK=      1 NCelE2=     1 NClLst=     1 CellRange=     0.0.
 One-electron integrals computed using PRISM.
 One-electron integral symmetry used in STVInt
 NBasis=   120 RedAO= T EigKep=  1.43D-04  NBF=   120
 NBsUse=   120 1.00D-06 EigRej= -1.00D+00 NBFU=   120
 Precomputing XC quadrature grid using
 IXCGrd= 4 IRadAn=           5 IRanWt=          -1 IRanGd=           0 AccXCQ= 0.00D+00.
 Generated NRdTot=       0 NPtTot=           0 NUsed=           0 NTot=          32
 NSgBfM=   116   116   116   116   116 MxSgAt=     4 MxSgA2=     4.
 Leave Link  302 at Fri Oct  6 21:59:49 2023, MaxMem=  1610612736 cpu:              19.9 elap:              12.5
 (Enter /home/sekinelabo/g16/l303.exe)
 DipDrv:  MaxL=1.
 Leave Link  303 at Fri Oct  6 21:59:50 2023, MaxMem=  1610612736 cpu:               2.6 elap:               1.6
 (Enter /home/sekinelabo/g16/l401.exe)
 ExpMin= 7.60D-03 ExpMax= 3.62D+04 ExpMxC= 1.21D+03 IAcc=3 IRadAn=         5 AccDes= 0.00D+00
 Harris functional with IExCor=  402 and IRadAn=       5 diagonalized for initial guess.
 HarFok:  IExCor=  402 AccDes= 0.00D+00 IRadAn=         5 IDoV= 1 UseB2=F ITyADJ=14
 ICtDFT=  3500011 ScaDFX=  1.000000  1.000000  1.000000  1.000000
 FoFCou: FMM=F IPFlag=           0 FMFlag=      100000 FMFlg1=           0
         NFxFlg=           0 DoJE=T BraDBF=F KetDBF=T FulRan=T
         wScrn=  0.000000 ICntrl=       500 IOpCl=  0 I1Cent=   200000004 NGrid=           0
         NMat0=    1 NMatS0=      1 NMatT0=    0 NMatD0=    1 NMtDS0=    0 NMtDT0=    0
 Petite list used in FoFCou.
 Harris En= -649.057689860798    
 JPrj=0 DoOrth=F DoCkMO=F.
 Leave Link  401 at Fri Oct  6 21:59:59 2023, MaxMem=  1610612736 cpu:              13.9 elap:               8.6
 (Enter /home/sekinelabo/g16/l502.exe)
 Keep R1 ints in memory in canonical form, NReq=41581754.
 FoFCou: FMM=F IPFlag=           0 FMFlag=           0 FMFlg1=           0
         NFxFlg=           0 DoJE=F BraDBF=F KetDBF=F FulRan=T
         wScrn=  0.000000 ICntrl=       600 IOpCl=  0 I1Cent=           0 NGrid=           0
         NMat0=    1 NMatS0=   7260 NMatT0=    0 NMatD0=    1 NMtDS0=    0 NMtDT0=    0
 Symmetry not used in FoFCou.
 Two-electron integral symmetry not used.
 Closed shell SCF:
 Using DIIS extrapolation, IDIIS=  1040.
 NGot=  1610612736 LenX=  1584221388 LenY=  1584205571
 Requested convergence on RMS density matrix=1.00D-08 within 128 cycles.
 Requested convergence on MAX density matrix=1.00D-06.
 Requested convergence on             energy=1.00D-06.
 No special actions if energy rises.

 Cycle   1  Pass 1  IDiag  1:
 E= -649.172109706742    
 DIIS: error= 1.23D-02 at cycle   1 NSaved=   1.
 NSaved= 1 IEnMin= 1 EnMin= -649.172109706742     IErMin= 1 ErrMin= 1.23D-02
 ErrMax= 1.23D-02  0.00D+00 EMaxC= 1.00D-01 BMatC= 2.66D-02 BMatP= 2.66D-02
 IDIUse=3 WtCom= 8.77D-01 WtEn= 1.23D-01
 Coeff-Com:  0.100D+01
 Coeff-En:   0.100D+01
 Coeff:      0.100D+01
 Gap=     0.034 Goal=   None    Shift=    0.000
 GapD=    0.034 DampG=0.250 DampE=0.500 DampFc=0.2500 IDamp=-1.
 Damping current iteration by 2.50D-01
 RMSDP=2.16D-03 MaxDP=6.35D-02              OVMax= 7.24D-02

 Cycle   2  Pass 1  IDiag  1:
 E= -649.176112810677     Delta-E=       -0.004003103936 Rises=F Damp=T
 DIIS: error= 8.64D-03 at cycle   2 NSaved=   2.
 NSaved= 2 IEnMin= 2 EnMin= -649.176112810677     IErMin= 2 ErrMin= 8.64D-03
 ErrMax= 8.64D-03  0.00D+00 EMaxC= 1.00D-01 BMatC= 1.02D-02 BMatP= 2.66D-02
 IDIUse=3 WtCom= 9.14D-01 WtEn= 8.64D-02
 Coeff-Com: -0.129D+01 0.229D+01
 Coeff-En:   0.000D+00 0.100D+01
 Coeff:     -0.118D+01 0.218D+01
 Gap=     0.035 Goal=   None    Shift=    0.000
 RMSDP=1.89D-03 MaxDP=5.65D-02 DE=-4.00D-03 OVMax= 5.70D-02

 Cycle   3  Pass 1  IDiag  1:
 E= -649.184100468736     Delta-E=       -0.007987658058 Rises=F Damp=F
 DIIS: error= 1.23D-03 at cycle   3 NSaved=   3.
 NSaved= 3 IEnMin= 3 EnMin= -649.184100468736     IErMin= 3 ErrMin= 1.23D-03
 ErrMax= 1.23D-03  0.00D+00 EMaxC= 1.00D-01 BMatC= 6.76D-05 BMatP= 1.02D-02
 IDIUse=3 WtCom= 9.88D-01 WtEn= 1.23D-02
 Coeff-Com: -0.476D-02 0.251D-01 0.980D+00
 Coeff-En:   0.000D+00 0.000D+00 0.100D+01
 Coeff:     -0.470D-02 0.248D-01 0.980D+00
 Gap=     0.037 Goal=   None    Shift=    0.000
 RMSDP=1.27D-03 MaxDP=7.21D-02 DE=-7.99D-03 OVMax= 1.21D-01

 Cycle   4  Pass 1  IDiag  1:
 E= -649.181314590067     Delta-E=        0.002785878669 Rises=F Damp=F
 DIIS: error= 3.07D-03 at cycle   4 NSaved=   4.
 NSaved= 4 IEnMin= 3 EnMin= -649.184100468736     IErMin= 3 ErrMin= 1.23D-03
 ErrMax= 3.07D-03  0.00D+00 EMaxC= 1.00D-01 BMatC= 4.25D-04 BMatP= 6.76D-05
 IDIUse=3 WtCom= 1.53D-01 WtEn= 8.47D-01
 Coeff-Com:  0.260D-01-0.331D-01 0.729D+00 0.278D+00
 Coeff-En:   0.000D+00 0.000D+00 0.816D+00 0.184D+00
 Coeff:      0.397D-02-0.506D-02 0.803D+00 0.198D+00
 Gap=     0.035 Goal=   None    Shift=    0.000
 RMSDP=7.14D-04 MaxDP=4.42D-02 DE= 2.79D-03 OVMax= 7.10D-02

 Cycle   5  Pass 1  IDiag  1:
 E= -649.184329131809     Delta-E=       -0.003014541742 Rises=F Damp=F
 DIIS: error= 8.66D-04 at cycle   5 NSaved=   5.
 NSaved= 5 IEnMin= 5 EnMin= -649.184329131809     IErMin= 5 ErrMin= 8.66D-04
 ErrMax= 8.66D-04  0.00D+00 EMaxC= 1.00D-01 BMatC= 3.13D-05 BMatP= 6.76D-05
 IDIUse=3 WtCom= 9.91D-01 WtEn= 8.66D-03
 Coeff-Com: -0.204D-02 0.235D-02 0.347D+00-0.554D-01 0.708D+00
 Coeff-En:   0.000D+00 0.000D+00 0.371D+00 0.000D+00 0.629D+00
 Coeff:     -0.202D-02 0.233D-02 0.347D+00-0.549D-01 0.708D+00
 Gap=     0.036 Goal=   None    Shift=    0.000
 RMSDP=2.23D-04 MaxDP=1.16D-02 DE=-3.01D-03 OVMax= 1.90D-02

 Cycle   6  Pass 1  IDiag  1:
 E= -649.184531612697     Delta-E=       -0.000202480888 Rises=F Damp=F
 DIIS: error= 6.08D-05 at cycle   6 NSaved=   6.
 NSaved= 6 IEnMin= 6 EnMin= -649.184531612697     IErMin= 6 ErrMin= 6.08D-05
 ErrMax= 6.08D-05  0.00D+00 EMaxC= 1.00D-01 BMatC= 3.65D-07 BMatP= 3.13D-05
 IDIUse=1 WtCom= 1.00D+00 WtEn= 0.00D+00
 Coeff-Com: -0.555D-02 0.700D-02 0.701D-01-0.681D-01 0.339D+00 0.658D+00
 Coeff:     -0.555D-02 0.700D-02 0.701D-01-0.681D-01 0.339D+00 0.658D+00
 Gap=     0.035 Goal=   None    Shift=    0.000
 RMSDP=3.12D-05 MaxDP=1.38D-03 DE=-2.02D-04 OVMax= 2.38D-03

 Cycle   7  Pass 1  IDiag  1:
 E= -649.184533532035     Delta-E=       -0.000001919338 Rises=F Damp=F
 DIIS: error= 6.87D-06 at cycle   7 NSaved=   7.
 NSaved= 7 IEnMin= 7 EnMin= -649.184533532035     IErMin= 7 ErrMin= 6.87D-06
 ErrMax= 6.87D-06  0.00D+00 EMaxC= 1.00D-01 BMatC= 7.65D-09 BMatP= 3.65D-07
 IDIUse=1 WtCom= 1.00D+00 WtEn= 0.00D+00
 Coeff-Com: -0.113D-02 0.142D-02-0.971D-03-0.982D-02 0.274D-01 0.147D+00
 Coeff-Com:  0.836D+00
 Coeff:     -0.113D-02 0.142D-02-0.971D-03-0.982D-02 0.274D-01 0.147D+00
 Coeff:      0.836D+00
 Gap=     0.035 Goal=   None    Shift=    0.000
 RMSDP=4.69D-06 MaxDP=1.97D-04 DE=-1.92D-06 OVMax= 3.18D-04

 Cycle   8  Pass 1  IDiag  1:
 E= -649.184533563151     Delta-E=       -0.000000031116 Rises=F Damp=F
 DIIS: error= 2.05D-06 at cycle   8 NSaved=   8.
 NSaved= 8 IEnMin= 8 EnMin= -649.184533563151     IErMin= 8 ErrMin= 2.05D-06
 ErrMax= 2.05D-06  0.00D+00 EMaxC= 1.00D-01 BMatC= 4.74D-10 BMatP= 7.65D-09
 IDIUse=1 WtCom= 1.00D+00 WtEn= 0.00D+00
 Coeff-Com:  0.388D-04-0.643D-04-0.418D-02 0.631D-03-0.996D-02 0.384D-02
 Coeff-Com:  0.205D+00 0.804D+00
 Coeff:      0.388D-04-0.643D-04-0.418D-02 0.631D-03-0.996D-02 0.384D-02
 Coeff:      0.205D+00 0.804D+00
 Gap=     0.035 Goal=   None    Shift=    0.000
 RMSDP=1.85D-06 MaxDP=3.80D-05 DE=-3.11D-08 OVMax= 1.07D-04

 Cycle   9  Pass 1  IDiag  1:
 E= -649.184533565211     Delta-E=       -0.000000002060 Rises=F Damp=F
 DIIS: error= 1.34D-06 at cycle   9 NSaved=   9.
 NSaved= 9 IEnMin= 9 EnMin= -649.184533565211     IErMin= 9 ErrMin= 1.34D-06
 ErrMax= 1.34D-06  0.00D+00 EMaxC= 1.00D-01 BMatC= 5.93D-11 BMatP= 4.74D-10
 IDIUse=1 WtCom= 1.00D+00 WtEn= 0.00D+00
 Coeff-Com:  0.134D-03-0.180D-03-0.983D-03 0.108D-02-0.498D-02-0.716D-02
 Coeff-Com:  0.186D-01 0.222D+00 0.771D+00
 Coeff:      0.134D-03-0.180D-03-0.983D-03 0.108D-02-0.498D-02-0.716D-02
 Coeff:      0.186D-01 0.222D+00 0.771D+00
 Gap=     0.035 Goal=   None    Shift=    0.000
 RMSDP=6.30D-07 MaxDP=2.22D-05 DE=-2.06D-09 OVMax= 5.49D-05

 Cycle  10  Pass 1  IDiag  1:
 E= -649.184533565613     Delta-E=       -0.000000000402 Rises=F Damp=F
 DIIS: error= 6.01D-07 at cycle  10 NSaved=  10.
 NSaved=10 IEnMin=10 EnMin= -649.184533565613     IErMin=10 ErrMin= 6.01D-07
 ErrMax= 6.01D-07  0.00D+00 EMaxC= 1.00D-01 BMatC= 1.47D-11 BMatP= 5.93D-11
 IDIUse=1 WtCom= 1.00D+00 WtEn= 0.00D+00
 Coeff-Com:  0.661D-04-0.873D-04-0.295D-03 0.458D-03-0.192D-02-0.555D-02
 Coeff-Com: -0.816D-02 0.539D-01 0.356D+00 0.605D+00
 Coeff:      0.661D-04-0.873D-04-0.295D-03 0.458D-03-0.192D-02-0.555D-02
 Coeff:     -0.816D-02 0.539D-01 0.356D+00 0.605D+00
 Gap=     0.035 Goal=   None    Shift=    0.000
 RMSDP=2.05D-07 MaxDP=9.80D-06 DE=-4.02D-10 OVMax= 2.08D-05

 Cycle  11  Pass 1  IDiag  1:
 E= -649.184533565726     Delta-E=       -0.000000000113 Rises=F Damp=F
 DIIS: error= 3.31D-08 at cycle  11 NSaved=  11.
 NSaved=11 IEnMin=11 EnMin= -649.184533565726     IErMin=11 ErrMin= 3.31D-08
 ErrMax= 3.31D-08  0.00D+00 EMaxC= 1.00D-01 BMatC= 2.22D-13 BMatP= 1.47D-11
 IDIUse=1 WtCom= 1.00D+00 WtEn= 0.00D+00
 Coeff-Com:  0.605D-05-0.773D-05 0.522D-05 0.461D-04-0.114D-03-0.526D-03
 Coeff-Com: -0.365D-02-0.565D-02 0.393D-01 0.120D+00 0.851D+00
 Coeff:      0.605D-05-0.773D-05 0.522D-05 0.461D-04-0.114D-03-0.526D-03
 Coeff:     -0.365D-02-0.565D-02 0.393D-01 0.120D+00 0.851D+00
 Gap=     0.035 Goal=   None    Shift=    0.000
 RMSDP=3.14D-08 MaxDP=1.01D-06 DE=-1.13D-10 OVMax= 1.33D-06

 Cycle  12  Pass 1  IDiag  1:
 E= -649.184533565732     Delta-E=       -0.000000000006 Rises=F Damp=F
 DIIS: error= 9.34D-09 at cycle  12 NSaved=  12.
 NSaved=12 IEnMin=12 EnMin= -649.184533565732     IErMin=12 ErrMin= 9.34D-09
 ErrMax= 9.34D-09  0.00D+00 EMaxC= 1.00D-01 BMatC= 1.20D-14 BMatP= 2.22D-13
 IDIUse=1 WtCom= 1.00D+00 WtEn= 0.00D+00
 Coeff-Com: -0.275D-05 0.367D-05 0.872D-05-0.135D-04 0.730D-04 0.211D-03
 Coeff-Com: -0.263D-03-0.185D-02-0.762D-02-0.133D-01 0.943D-01 0.928D+00
 Coeff:     -0.275D-05 0.367D-05 0.872D-05-0.135D-04 0.730D-04 0.211D-03
 Coeff:     -0.263D-03-0.185D-02-0.762D-02-0.133D-01 0.943D-01 0.928D+00
 Gap=     0.035 Goal=   None    Shift=    0.000
 RMSDP=9.01D-09 MaxDP=3.29D-07 DE=-5.68D-12 OVMax= 6.43D-07

 SCF Done:  E(RB3LYP) =  -649.184533566     A.U. after   12 cycles
            NFock= 12  Conv=0.90D-08     -V/T= 2.0030
 KE= 6.472309402835D+02 PE=-1.704651109695D+03 EE= 3.353982877517D+02
 Leave Link  502 at Fri Oct  6 22:01:21 2023, MaxMem=  1610612736 cpu:             130.4 elap:              81.8
 (Enter /home/sekinelabo/g16/l601.exe)
 Copying SCF densities to generalized density rwf, IOpCl= 0 IROHF=0.

 **********************************************************************

            Population analysis using the SCF Density.

 **********************************************************************

 Orbital symmetries:
       Occupied  (A) (A) (A) (A) (A) (A) (A) (A) (A) (A) (A) (A)
                 (A) (A) (A) (A) (A) (A) (A) (A) (A) (A)
       Virtual   (A) (A) (A) (A) (A) (A) (A) (A) (A) (A) (A) (A)
                 (A) (A) (A) (A) (A) (A) (A) (A) (A) (A) (A) (A)
                 (A) (A) (A) (A) (A) (A) (A) (A) (A) (A) (A) (A)
                 (A) (A) (A) (A) (A) (A) (A) (A) (A) (A) (A) (A)
                 (A) (A) (A) (A) (A) (A) (A) (A) (A) (A) (A) (A)
                 (A) (A) (A) (A) (A) (A) (A) (A) (A) (A) (A) (A)
                 (A) (A) (A) (A) (A) (A) (A) (A) (A) (A) (A) (A)
                 (A) (A) (A) (A) (A) (A) (A) (A) (A) (A) (A) (A)
                 (A) (A)
 The electronic state is 1-A.
 Alpha  occ. eigenvalues --  -38.45569 -38.45282 -38.45179 -38.45115  -2.21304
 Alpha  occ. eigenvalues --   -2.20963  -2.20926  -2.20798  -1.14976  -1.14973
 Alpha  occ. eigenvalues --   -1.14938  -1.14658  -1.14655  -1.14605  -1.14584
 Alpha  occ. eigenvalues --   -1.14568  -1.14559  -1.14478  -1.14478  -1.14427
 Alpha  occ. eigenvalues --   -0.14010  -0.11257
 Alpha virt. eigenvalues --   -0.07711  -0.05836  -0.02984  -0.02693  -0.02045
 Alpha virt. eigenvalues --   -0.01473  -0.01338  -0.00536  -0.00151   0.00029
 Alpha virt. eigenvalues --    0.00322   0.00667   0.00766   0.00960   0.01168
 Alpha virt. eigenvalues --    0.01381   0.01551   0.01664   0.01872   0.01951
 Alpha virt. eigenvalues --    0.02295   0.02334   0.02443   0.02478   0.02910
 Alpha virt. eigenvalues --    0.03050   0.03265   0.03449   0.04158   0.04386
 Alpha virt. eigenvalues --    0.06785   0.07298   0.07381   0.07778   0.08379
 Alpha virt. eigenvalues --    0.08434   0.08825   0.08914   0.09069   0.09345
 Alpha virt. eigenvalues --    0.09477   0.10707   0.11129   0.12313   0.12718
 Alpha virt. eigenvalues --    0.13819   0.29011   0.29499   0.29868   0.32131
 Alpha virt. eigenvalues --    0.32617   0.34373   0.34529   0.35093   0.35177
 Alpha virt. eigenvalues --    0.35218   0.35310   0.35511   0.36151   0.36505
 Alpha virt. eigenvalues --    0.37292   0.38656   0.41974   0.42092   0.42598
 Alpha virt. eigenvalues --    0.42612   0.43330   0.43772   0.43827   0.44223
 Alpha virt. eigenvalues --    0.44670   0.44919   0.45209   0.47219   0.47813
 Alpha virt. eigenvalues --    0.49703   0.51118   0.59439   1.99759   2.03761
 Alpha virt. eigenvalues --    2.04635   2.11337   4.41707   4.43036   4.43130
 Alpha virt. eigenvalues --    4.43523   4.43716   4.44063   4.44229   4.44360
 Alpha virt. eigenvalues --    4.45071   4.45542   4.49501   4.50807  96.18543
 Alpha virt. eigenvalues --   96.23285  96.24214  96.32477
          Condensed to atoms (all electrons):
               1          2          3          4
     1  Na  10.647157   0.317687   0.010684  -0.054338
     2  Na   0.317687  10.756912  -0.114622  -0.036718
     3  Na   0.010684  -0.114622  10.955103   0.243916
     4  Na  -0.054338  -0.036718   0.243916  10.907612
 Mulliken charges:
               1
     1  Na   0.078811
     2  Na   0.076740
     3  Na  -0.095080
     4  Na  -0.060471
 Sum of Mulliken charges =  -0.00000
 Mulliken charges with hydrogens summed into heavy atoms:
               1
     1  Na   0.078811
     2  Na   0.076740
     3  Na  -0.095080
     4  Na  -0.060471
 Electronic spatial extent (au):  <R**2>=           2612.7725
 Charge=             -0.0000 electrons
 Dipole moment (field-independent basis, Debye):
    X=             -2.0931    Y=             -0.3232    Z=             -0.1009  Tot=              2.1203
 Quadrupole moment (field-independent basis, Debye-Ang):
   XX=            -32.3569   YY=            -34.9945   ZZ=            -44.9886
   XY=              2.1699   XZ=             -1.4967   YZ=             -0.6515
 Traceless Quadrupole moment (field-independent basis, Debye-Ang):
   XX=              5.0898   YY=              2.4521   ZZ=             -7.5419
   XY=              2.1699   XZ=             -1.4967   YZ=             -0.6515
 Octapole moment (field-independent basis, Debye-Ang**2):
  XXX=             26.0642  YYY=              2.1170  ZZZ=             -0.3183  XYY=            -45.9231
  XXY=            -39.6934  XXZ=            -12.7319  XZZ=             -9.0623  YZZ=              0.2554
  YYZ=             -2.2645  XYZ=              2.8087
 Hexadecapole moment (field-independent basis, Debye-Ang**3):
 XXXX=          -3234.1956 YYYY=           -399.8517 ZZZZ=           -226.5735 XXXY=             99.5757
 XXXZ=            -80.4483 YYYX=             14.8708 YYYZ=             -6.0291 ZZZX=             -6.5073
 ZZZY=             -3.6085 XXYY=           -632.2157 XXZZ=           -731.5985 YYZZ=           -108.9988
 XXYZ=             -0.7272 YYXZ=              2.9053 ZZXY=              3.0888
 N-N= 7.283734809360D+01 E-N=-1.704651109289D+03  KE= 6.472309402835D+02
 No NMR shielding tensors so no spin-rotation constants.
 Leave Link  601 at Fri Oct  6 22:01:26 2023, MaxMem=  1610612736 cpu:               8.6 elap:               5.3
 (Enter /home/sekinelabo/g16/l701.exe)
 ... and contract with generalized density number  0.
 Compute integral first derivatives.
 Leave Link  701 at Fri Oct  6 22:01:31 2023, MaxMem=  1610612736 cpu:               7.6 elap:               4.7
 (Enter /home/sekinelabo/g16/l702.exe)
 L702 exits ... SP integral derivatives will be done elsewhere.
 Leave Link  702 at Fri Oct  6 22:01:31 2023, MaxMem=  1610612736 cpu:               0.6 elap:               0.4
 (Enter /home/sekinelabo/g16/l703.exe)
 Integral derivatives from FoFJK, PRISM(SPDF).
 Compute integral first derivatives, UseDBF=F ICtDFT=           0.
 Calling FoFJK, ICntrl=      2127 FMM=F ISym2X=0 I1Cent= 0 IOpClX= 0 NMat=1 NMatS=1 NMatT=0.
 FoFJK:  IHMeth= 1 ICntrl=    2127 DoSepK=F KAlg= 0 I1Cent=           0 FoldK=F
 IRaf=         0 NMat=       1 IRICut=       1 DoRegI=T DoRafI=F ISym2E= 0 IDoP0=0 IntGTp=1.
 FoFCou: FMM=F IPFlag=           0 FMFlag=      100000 FMFlg1=         800
         NFxFlg=           0 DoJE=F BraDBF=F KetDBF=F FulRan=T
         wScrn=  0.000000 ICntrl=      2127 IOpCl=  0 I1Cent=           0 NGrid=           0
         NMat0=    1 NMatS0=      1 NMatT0=    0 NMatD0=    1 NMtDS0=    0 NMtDT0=    0
 Symmetry not used in FoFCou.
 Leave Link  703 at Fri Oct  6 22:01:39 2023, MaxMem=  1610612736 cpu:              12.3 elap:               7.8
 (Enter /home/sekinelabo/g16/l716.exe)
 Dipole        =-8.23492488D-01-1.27166886D-01-3.96819999D-02
 ***** Axes restored to original set *****
 -------------------------------------------------------------------
 Center     Atomic                   Forces (Hartrees/Bohr)
 Number     Number              X              Y              Z
 -------------------------------------------------------------------
      1       11          -0.004398623    0.000001917    0.001550693
      2       11           0.004738655    0.000047087    0.000907392
      3       11           0.000919751   -0.002568124    0.004067754
      4       11          -0.001259783    0.002519120   -0.006525838
 -------------------------------------------------------------------
 Cartesian Forces:  Max     0.006525838 RMS     0.003156216
 Z-matrix is all fixed cartesians, so copy forces.
 Force constants in Cartesian coordinates: 
                1             2             3             4             5 
      1  0.255251D-01
      2 -0.715651D-01  0.958967D+00
      3 -0.113457D-01  0.184875D+00  0.359387D-01
      4 -0.201844D-01  0.000000D+00 -0.245095D-02  0.255251D-01
      5  0.000000D+00  0.000000D+00  0.000000D+00 -0.715651D-01  0.958967D+00
      6 -0.245095D-02  0.000000D+00 -0.297612D-03 -0.113457D-01  0.184875D+00
      7  0.000000D+00  0.000000D+00  0.000000D+00  0.000000D+00  0.000000D+00
      8  0.000000D+00  0.000000D+00  0.000000D+00  0.000000D+00  0.000000D+00
      9  0.000000D+00  0.000000D+00  0.000000D+00  0.000000D+00  0.000000D+00
     10  0.000000D+00  0.000000D+00  0.000000D+00  0.000000D+00  0.000000D+00
     11  0.000000D+00  0.000000D+00  0.000000D+00  0.000000D+00  0.000000D+00
     12  0.000000D+00  0.000000D+00  0.000000D+00  0.000000D+00  0.000000D+00
                6             7             8             9            10 
      6  0.359387D-01
      7  0.000000D+00  0.100000D+01
      8  0.000000D+00  0.000000D+00  0.100000D+01
      9  0.000000D+00  0.000000D+00  0.000000D+00  0.100000D+01
     10  0.000000D+00  0.000000D+00  0.000000D+00  0.000000D+00  0.100000D+01
     11  0.000000D+00  0.000000D+00  0.000000D+00  0.000000D+00  0.000000D+00
     12  0.000000D+00  0.000000D+00  0.000000D+00  0.000000D+00  0.000000D+00
               11            12 
     11  0.100000D+01
     12  0.000000D+00  0.100000D+01
 Leave Link  716 at Fri Oct  6 22:01:40 2023, MaxMem=  1610612736 cpu:               0.7 elap:               0.5
 (Enter /home/sekinelabo/g16/l103.exe)

 GradGradGradGradGradGradGradGradGradGradGradGradGradGradGradGradGradGrad
 Berny optimization.
 Search for a local minimum.
 Step number   1 out of a maximum of    2
 All quantities printed in internal units (Hartrees-Bohrs-Radians)
 Second derivative matrix not updated -- first step.
 The second derivative matrix:
                          X1        Y1        Z1        X2        Y2
           X1           0.02553
           Y1          -0.07157   0.95897
           Z1          -0.01135   0.18487   0.03594
           X2          -0.02018   0.00000  -0.00245   0.02553
           Y2           0.00000  -0.00000   0.00000  -0.07157   0.95897
           Z2          -0.00245   0.00000  -0.00030  -0.01135   0.18487
           X3           0.00000   0.00000   0.00000   0.00000   0.00000
           Y3           0.00000   0.00000   0.00000   0.00000   0.00000
           Z3           0.00000   0.00000   0.00000   0.00000   0.00000
           X4           0.00000   0.00000   0.00000   0.00000   0.00000
           Y4           0.00000   0.00000   0.00000   0.00000   0.00000
           Z4           0.00000   0.00000   0.00000   0.00000   0.00000
                          Z2        X3        Y3        Z3        X4
           Z2           0.03594
           X3           0.00000   1.00000
           Y3           0.00000   0.00000   1.00000
           Z3           0.00000  -0.00000   0.00000   1.00000
           X4           0.00000   0.00000   0.00000   0.00000   1.00000
           Y4           0.00000   0.00000   0.00000   0.00000   0.00000
           Z4           0.00000   0.00000   0.00000   0.00000  -0.00000
                          Y4        Z4
           Y4           1.00000
           Z4           0.00000   1.00000
 ITU=  0
     Eigenvalues ---    0.04276   0.05207   0.50071   0.92129   1.00000
     Eigenvalues ---    1.00000
 Angle between quadratic step and forces=  50.11 degrees.
 Linear search not attempted -- first point.
 B after Tr=    -0.000000    0.000000    0.000000
         Rot=    1.000000    0.000000   -0.000000    0.000000 Ang=   0.00 deg.
 Variable       Old X    -DE/DX   Delta X   Delta X   Delta X     New X
                                 (Linear)    (Quad)   (Total)
    X1        0.00000  -0.00440   0.00000  -0.10586  -0.10586  -0.10586
    Y1       -0.00000   0.00000   0.00000  -0.00312  -0.00312  -0.00312
    Z1        0.00000   0.00155   0.00000   0.00335   0.00335   0.00335
    X2       -6.41185   0.00474   0.00000   0.10267   0.10267  -6.30919
    Y2       -0.00000   0.00005   0.00000   0.00197   0.00197   0.00197
    Z2       -0.77858   0.00091   0.00000   0.00267   0.00267  -0.77591
    X3        0.00000   0.00092   0.00000   0.00036   0.00036   0.00036
    Y3       -0.00000  -0.00257   0.00000  -0.00132  -0.00132  -0.00132
    Z3        7.93204   0.00407   0.00000   0.00301   0.00301   7.93504
    X4        1.63891  -0.00126   0.00000   0.00283   0.00283   1.64174
    Y4       -3.03783   0.00252   0.00000   0.00247   0.00247  -3.03536
    Z4       15.97085  -0.00653   0.00000  -0.00902  -0.00902  15.96182
         Item               Value     Threshold  Converged?
 Maximum Force            0.006526     0.000450     NO 
 RMS     Force            0.003156     0.000300     NO 
 Maximum Displacement     0.105855     0.001800     NO 
 RMS     Displacement     0.042704     0.001200     NO 
 Predicted change in Energy=-5.186561D-04
 GradGradGradGradGradGradGradGradGradGradGradGradGradGradGradGradGradGrad

 Leave Link  103 at Fri Oct  6 22:01:42 2023, MaxMem=  1610612736 cpu:               3.7 elap:               2.3
 (Enter /home/sekinelabo/g16/l9999.exe)
 1\1\GINC-SEKINELABO-XA7R-R37\Force\RB3LYP\6-311+G(d)\Na4\SEKINELABO\06
 -Oct-2023\0\\#p B3LYP/6-311+g(d) force\\\0,1\Na,0.,0.,0.\Na,-3.3930067
 205,0.,-0.4120043777\Na,0.,0.,4.197452482\Na,0.8672735393,-1.607551394
 5,8.451407724\\Version=ES64L-G16RevB.01\State=1-A\HF=-649.1845336\RMSD
 =9.008e-09\RMSF=3.156e-03\Dipole=-0.3850318,0.0727204,-0.7364429\Quadr
 upole=3.1009719,-5.1043631,2.0033912,-0.5458944,1.865243,-2.2357178\PG
 =C01 [X(Na4)]\\@


 OPTIMIST - A PESSIMIST WHO LACKS EXPERIENCE
 Job cpu time:       0 days  0 hours  3 minutes 26.2 seconds.
 Elapsed time:       0 days  0 hours  2 minutes  8.7 seconds.
 File lengths (MBytes):  RWF=     10 Int=      0 D2E=      0 Chk=      2 Scr=      1
 Normal termination of Gaussian 16 at Fri Oct  6 22:01:43 2023.
 Initial command:
 /home/sekinelabo/g16/l1.exe "/home/sekinelabo/g16temp/Gau-708794.inp" -scrdir="/home/sekinelabo/g16temp/"
 Entering Link 1 = /home/sekinelabo/g16/l1.exe PID=    710668.
  
 Copyright (c) 1988-2017, Gaussian, Inc.  All Rights Reserved.
  
 This is part of the Gaussian(R) 16 program.  It is based on
 the Gaussian(R) 09 system (copyright 2009, Gaussian, Inc.),
 the Gaussian(R) 03 system (copyright 2003, Gaussian, Inc.),
 the Gaussian(R) 98 system (copyright 1998, Gaussian, Inc.),
 the Gaussian(R) 94 system (copyright 1995, Gaussian, Inc.),
 the Gaussian 92(TM) system (copyright 1992, Gaussian, Inc.),
 the Gaussian 90(TM) system (copyright 1990, Gaussian, Inc.),
 the Gaussian 88(TM) system (copyright 1988, Gaussian, Inc.),
 the Gaussian 86(TM) system (copyright 1986, Carnegie Mellon
 University), and the Gaussian 82(TM) system (copyright 1983,
 Carnegie Mellon University). Gaussian is a federally registered
 trademark of Gaussian, Inc.
  
 This software contains proprietary and confidential information,
 including trade secrets, belonging to Gaussian, Inc.
  
 This software is provided under written license and may be
 used, copied, transmitted, or stored only in accord with that
 written license.
  
 The following legend is applicable only to US Government
 contracts under FAR:
  
                    RESTRICTED RIGHTS LEGEND
  
 Use, reproduction and disclosure by the US Government is
 subject to restrictions as set forth in subparagraphs (a)
 and (c) of the Commercial Computer Software - Restricted
 Rights clause in FAR 52.227-19.
  
 Gaussian, Inc.
 340 Quinnipiac St., Bldg. 40, Wallingford CT 06492
  
  
 ---------------------------------------------------------------
 Warning -- This program may not be used in any manner that
 competes with the business of Gaussian, Inc. or will provide
 assistance to any competitor of Gaussian, Inc.  The licensee
 of this program is prohibited from giving any competitor of
 Gaussian, Inc. access to this program.  By using this program,
 the user acknowledges that Gaussian, Inc. is engaged in the
 business of creating and licensing software in the field of
 computational chemistry and represents and warrants to the
 licensee that it is not a competitor of Gaussian, Inc. and that
 it will not use this program in any manner prohibited above.
 ---------------------------------------------------------------
  

 Cite this work as:
 Gaussian 16, Revision B.01,
 M. J. Frisch, G. W. Trucks, H. B. Schlegel, G. E. Scuseria, 
 M. A. Robb, J. R. Cheeseman, G. Scalmani, V. Barone, 
 G. A. Petersson, H. Nakatsuji, X. Li, M. Caricato, A. V. Marenich, 
 J. Bloino, B. G. Janesko, R. Gomperts, B. Mennucci, H. P. Hratchian, 
 J. V. Ortiz, A. F. Izmaylov, J. L. Sonnenberg, D. Williams-Young, 
 F. Ding, F. Lipparini, F. Egidi, J. Goings, B. Peng, A. Petrone, 
 T. Henderson, D. Ranasinghe, V. G. Zakrzewski, J. Gao, N. Rega, 
 G. Zheng, W. Liang, M. Hada, M. Ehara, K. Toyota, R. Fukuda, 
 J. Hasegawa, M. Ishida, T. Nakajima, Y. Honda, O. Kitao, H. Nakai, 
 T. Vreven, K. Throssell, J. A. Montgomery, Jr., J. E. Peralta, 
 F. Ogliaro, M. J. Bearpark, J. J. Heyd, E. N. Brothers, K. N. Kudin, 
 V. N. Staroverov, T. A. Keith, R. Kobayashi, J. Normand, 
 K. Raghavachari, A. P. Rendell, J. C. Burant, S. S. Iyengar, 
 J. Tomasi, M. Cossi, J. M. Millam, M. Klene, C. Adamo, R. Cammi, 
 J. W. Ochterski, R. L. Martin, K. Morokuma, O. Farkas, 
 J. B. Foresman, and D. J. Fox, Gaussian, Inc., Wallingford CT, 2016.
 
 ******************************************
 Gaussian 16:  ES64L-G16RevB.01 20-Dec-2017
                 6-Oct-2023 
 ******************************************
 %NProcShared=16
 Will use up to   16 processors via shared memory.
 %mem=12GB
 %Chk=checkpoint.chk
 -------------------------
 #p B3LYP/6-311+g(d) force
 -------------------------
 1/10=7,30=1,38=1/1,3;
 2/12=2,17=6,18=5,40=1/2;
 3/5=4,6=6,7=11,11=2,25=1,30=1,71=1,74=-5/1,2,3;
 4//1;
 5/5=2,38=5/2;
 6/7=2,8=2,9=2,10=2,28=1/1;
 7/29=1/1,2,3,16;
 1/10=7,30=1/3;
 99//99;
 Leave Link    1 at Fri Oct  6 22:01:43 2023, MaxMem=  1610612736 cpu:               0.5 elap:               0.4
 (Enter /home/sekinelabo/g16/l101.exe)


 Symbolic Z-matrix:
 Charge =  0 Multiplicity = 1
 Na                    0.        0.        0. 
 Na                   -2.28909   0.        4.27285 
 Na                    0.        0.        4.94829 
 Na                   -4.2496   -0.82569   7.90845 
 
 ITRead=  0  0  0  0
 MicOpt= -1 -1 -1 -1
 NAtoms=      4 NQM=        4 NQMF=       0 NMMI=      0 NMMIF=      0
                NMic=       0 NMicF=      0.
                    Isotopes and Nuclear Properties:
 (Nuclear quadrupole moments (NQMom) in fm**2, nuclear magnetic moments (NMagM)
  in nuclear magnetons)

  Atom         1           2           3           4
 IAtWgt=          23          23          23          23
 AtmWgt=  22.9897697  22.9897697  22.9897697  22.9897697
 NucSpn=           3           3           3           3
 AtZEff=  -0.0000000  -0.0000000  -0.0000000  -0.0000000
 NQMom=   10.4000000  10.4000000  10.4000000  10.4000000
 NMagM=    2.2175200   2.2175200   2.2175200   2.2175200
 AtZNuc=  11.0000000  11.0000000  11.0000000  11.0000000
 Leave Link  101 at Fri Oct  6 22:01:44 2023, MaxMem=  1610612736 cpu:               2.0 elap:               1.3
 (Enter /home/sekinelabo/g16/l103.exe)

 GradGradGradGradGradGradGradGradGradGradGradGradGradGradGradGradGradGrad
 Berny optimization.
 Initialization pass.
 Trust Radius=3.00D-01 FncErr=1.00D-07 GrdErr=1.00D-07 EigMax=2.50D+02 EigMin=1.00D-04
 Number of steps in this run=      2 maximum allowed number of steps=      2.
 GradGradGradGradGradGradGradGradGradGradGradGradGradGradGradGradGradGrad

 Leave Link  103 at Fri Oct  6 22:01:45 2023, MaxMem=  1610612736 cpu:               0.5 elap:               0.4
 (Enter /home/sekinelabo/g16/l202.exe)
                          Input orientation:                          
 ---------------------------------------------------------------------
 Center     Atomic      Atomic             Coordinates (Angstroms)
 Number     Number       Type             X           Y           Z
 ---------------------------------------------------------------------
      1         11           0        0.000000    0.000000    0.000000
      2         11           0       -2.289087    0.000000    4.272847
      3         11           0        0.000000    0.000000    4.948292
      4         11           0       -4.249595   -0.825694    7.908452
 ---------------------------------------------------------------------
                    Distance matrix (angstroms):
                    1          2          3          4
     1  Na   0.000000
     2  Na   4.847385   0.000000
     3  Na   4.948292   2.386660   0.000000
     4  Na   9.015789   4.212243   5.244367   0.000000
 Stoichiometry    Na4
 Framework group  C1[X(Na4)]
 Deg. of freedom     6
 Full point group                 C1      NOp   1
 Largest Abelian subgroup         C1      NOp   1
 Largest concise Abelian subgroup C1      NOp   1
                         Standard orientation:                         
 ---------------------------------------------------------------------
 Center     Atomic      Atomic             Coordinates (Angstroms)
 Number     Number       Type             X           Y           Z
 ---------------------------------------------------------------------
      1         11           0       -4.537971   -0.665310   -0.133675
      2         11           0        0.288951   -0.547872    0.295477
      3         11           0       -0.228025    1.762422   -0.006887
      4         11           0        4.477045   -0.549240   -0.154915
 ---------------------------------------------------------------------
 Rotational constants (GHZ):           5.1363827           0.5374522           0.4893413
 Leave Link  202 at Fri Oct  6 22:01:46 2023, MaxMem=  1610612736 cpu:               1.1 elap:               0.7
 (Enter /home/sekinelabo/g16/l301.exe)
 Standard basis: 6-311+G(d) (5D, 7F)
 Ernie: Thresh=  0.10000D-02 Tol=  0.10000D-05 Strict=F.
 There are   124 symmetry adapted cartesian basis functions of A   symmetry.
 There are   120 symmetry adapted basis functions of A   symmetry.
   120 basis functions,   200 primitive gaussians,   124 cartesian basis functions
    22 alpha electrons       22 beta electrons
       nuclear repulsion energy        87.4901043555 Hartrees.
 IExCor=  402 DFT=T Ex+Corr=B3LYP ExCW=0 ScaHFX=  0.200000
 ScaDFX=  0.800000  0.720000  1.000000  0.810000 ScalE2=  1.000000  1.000000
 IRadAn=      5 IRanWt=     -1 IRanGd=            0 ICorTp=0 IEmpDi=  4
 NAtoms=    4 NActive=    4 NUniq=    4 SFac= 1.00D+00 NAtFMM=   60 NAOKFM=F Big=F
 Integral buffers will be    131072 words long.
 Raffenetti 2 integral format.
 Two-electron integral symmetry is turned on.
 Leave Link  301 at Fri Oct  6 22:01:46 2023, MaxMem=  1610612736 cpu:               0.7 elap:               0.5
 (Enter /home/sekinelabo/g16/l302.exe)
 NPDir=0 NMtPBC=     1 NCelOv=     1 NCel=       1 NClECP=     1 NCelD=      1
         NCelK=      1 NCelE2=     1 NClLst=     1 CellRange=     0.0.
 One-electron integrals computed using PRISM.
 One-electron integral symmetry used in STVInt
 NBasis=   120 RedAO= T EigKep=  2.46D-05  NBF=   120
 NBsUse=   120 1.00D-06 EigRej= -1.00D+00 NBFU=   120
 Precomputing XC quadrature grid using
 IXCGrd= 4 IRadAn=           5 IRanWt=          -1 IRanGd=           0 AccXCQ= 0.00D+00.
 Generated NRdTot=       0 NPtTot=           0 NUsed=           0 NTot=          32
 NSgBfM=   116   116   116   116   116 MxSgAt=     4 MxSgA2=     4.
 Leave Link  302 at Fri Oct  6 22:01:59 2023, MaxMem=  1610612736 cpu:              20.9 elap:              12.8
 (Enter /home/sekinelabo/g16/l303.exe)
 DipDrv:  MaxL=1.
 Leave Link  303 at Fri Oct  6 22:02:01 2023, MaxMem=  1610612736 cpu:               2.9 elap:               1.8
 (Enter /home/sekinelabo/g16/l401.exe)
 ExpMin= 7.60D-03 ExpMax= 3.62D+04 ExpMxC= 1.21D+03 IAcc=3 IRadAn=         5 AccDes= 0.00D+00
 Harris functional with IExCor=  402 and IRadAn=       5 diagonalized for initial guess.
 HarFok:  IExCor=  402 AccDes= 0.00D+00 IRadAn=         5 IDoV= 1 UseB2=F ITyADJ=14
 ICtDFT=  3500011 ScaDFX=  1.000000  1.000000  1.000000  1.000000
 FoFCou: FMM=F IPFlag=           0 FMFlag=      100000 FMFlg1=           0
         NFxFlg=           0 DoJE=T BraDBF=F KetDBF=T FulRan=T
         wScrn=  0.000000 ICntrl=       500 IOpCl=  0 I1Cent=   200000004 NGrid=           0
         NMat0=    1 NMatS0=      1 NMatT0=    0 NMatD0=    1 NMtDS0=    0 NMtDT0=    0
 Petite list used in FoFCou.
 Harris En= -649.037942865189    
 JPrj=0 DoOrth=F DoCkMO=F.
 Leave Link  401 at Fri Oct  6 22:02:10 2023, MaxMem=  1610612736 cpu:              14.6 elap:               8.9
 (Enter /home/sekinelabo/g16/l502.exe)
 Keep R1 ints in memory in canonical form, NReq=41581754.
 FoFCou: FMM=F IPFlag=           0 FMFlag=           0 FMFlg1=           0
         NFxFlg=           0 DoJE=F BraDBF=F KetDBF=F FulRan=T
         wScrn=  0.000000 ICntrl=       600 IOpCl=  0 I1Cent=           0 NGrid=           0
         NMat0=    1 NMatS0=   7260 NMatT0=    0 NMatD0=    1 NMtDS0=    0 NMtDT0=    0
 Symmetry not used in FoFCou.
 Two-electron integral symmetry not used.
 Closed shell SCF:
 Using DIIS extrapolation, IDIIS=  1040.
 NGot=  1610612736 LenX=  1584221388 LenY=  1584205571
 Requested convergence on RMS density matrix=1.00D-08 within 128 cycles.
 Requested convergence on MAX density matrix=1.00D-06.
 Requested convergence on             energy=1.00D-06.
 No special actions if energy rises.

 Cycle   1  Pass 1  IDiag  1:
 E= -649.151263059424    
 DIIS: error= 1.46D-02 at cycle   1 NSaved=   1.
 NSaved= 1 IEnMin= 1 EnMin= -649.151263059424     IErMin= 1 ErrMin= 1.46D-02
 ErrMax= 1.46D-02  0.00D+00 EMaxC= 1.00D-01 BMatC= 2.72D-02 BMatP= 2.72D-02
 IDIUse=3 WtCom= 8.54D-01 WtEn= 1.46D-01
 Coeff-Com:  0.100D+01
 Coeff-En:   0.100D+01
 Coeff:      0.100D+01
 Gap=     0.027 Goal=   None    Shift=    0.000
 GapD=    0.027 DampG=0.250 DampE=0.500 DampFc=0.2500 IDamp=-1.
 Damping current iteration by 2.50D-01
 RMSDP=3.38D-03 MaxDP=1.22D-01              OVMax= 2.38D-01

 Cycle   2  Pass 1  IDiag  1:
 E= -649.155201587881     Delta-E=       -0.003938528457 Rises=F Damp=T
 DIIS: error= 1.04D-02 at cycle   2 NSaved=   2.
 NSaved= 2 IEnMin= 2 EnMin= -649.155201587881     IErMin= 2 ErrMin= 1.04D-02
 ErrMax= 1.04D-02  0.00D+00 EMaxC= 1.00D-01 BMatC= 1.04D-02 BMatP= 2.72D-02
 IDIUse=3 WtCom= 8.96D-01 WtEn= 1.04D-01
 Coeff-Com: -0.123D+01 0.223D+01
 Coeff-En:   0.000D+00 0.100D+01
 Coeff:     -0.111D+01 0.211D+01
 Gap=     0.020 Goal=   None    Shift=    0.000
 RMSDP=3.75D-03 MaxDP=2.04D-01 DE=-3.94D-03 OVMax= 5.56D-01

 Cycle   3  Pass 1  IDiag  1:
 E= -649.112917654660     Delta-E=        0.042283933221 Rises=F Damp=F
 DIIS: error= 1.19D-02 at cycle   3 NSaved=   3.
 NSaved= 3 IEnMin= 2 EnMin= -649.155201587881     IErMin= 2 ErrMin= 1.04D-02
 ErrMax= 1.19D-02  0.00D+00 EMaxC= 1.00D-01 BMatC= 5.25D-03 BMatP= 1.04D-02
 IDIUse=3 WtCom= 8.81D-01 WtEn= 1.19D-01
 Coeff-Com: -0.772D+00 0.137D+01 0.398D+00
 Coeff-En:   0.000D+00 0.934D+00 0.662D-01
 Coeff:     -0.680D+00 0.132D+01 0.359D+00
 Gap=     0.011 Goal=   None    Shift=    0.000
 RMSDP=6.14D-03 MaxDP=3.44D-01 DE= 4.23D-02 OVMax= 6.66D-01

 Cycle   4  Pass 1  IDiag  1:
 E= -649.116597547535     Delta-E=       -0.003679892875 Rises=F Damp=F
 DIIS: error= 1.30D-02 at cycle   4 NSaved=   4.
 NSaved= 4 IEnMin= 2 EnMin= -649.155201587881     IErMin= 2 ErrMin= 1.04D-02
 ErrMax= 1.30D-02  0.00D+00 EMaxC= 1.00D-01 BMatC= 5.16D-03 BMatP= 5.25D-03
 IDIUse=3 WtCom= 8.70D-01 WtEn= 1.30D-01
 EnCoef did     3 forward-backward iterations
 Coeff-Com: -0.114D+00 0.257D+00 0.443D+00 0.414D+00
 Coeff-En:   0.000D+00 0.176D+00 0.407D+00 0.417D+00
 Coeff:     -0.990D-01 0.246D+00 0.438D+00 0.415D+00
 Gap=     0.022 Goal=   None    Shift=    0.000
 RMSDP=3.08D-03 MaxDP=1.82D-01 DE=-3.68D-03 OVMax= 3.41D-01

 Cycle   5  Pass 1  IDiag  1:
 E= -649.164556455111     Delta-E=       -0.047958907576 Rises=F Damp=F
 DIIS: error= 7.06D-04 at cycle   5 NSaved=   5.
 NSaved= 5 IEnMin= 5 EnMin= -649.164556455111     IErMin= 5 ErrMin= 7.06D-04
 ErrMax= 7.06D-04  0.00D+00 EMaxC= 1.00D-01 BMatC= 4.82D-05 BMatP= 5.16D-03
 IDIUse=3 WtCom= 9.93D-01 WtEn= 7.06D-03
 Coeff-Com: -0.186D-01 0.242D-01 0.485D-01-0.158D-01 0.962D+00
 Coeff-En:   0.000D+00 0.000D+00 0.000D+00 0.000D+00 0.100D+01
 Coeff:     -0.185D-01 0.240D-01 0.482D-01-0.157D-01 0.962D+00
 Gap=     0.029 Goal=   None    Shift=    0.000
 RMSDP=3.99D-04 MaxDP=1.57D-02 DE=-4.80D-02 OVMax= 2.43D-02

 Cycle   6  Pass 1  IDiag  1:
 E= -649.164623282876     Delta-E=       -0.000066827765 Rises=F Damp=F
 DIIS: error= 9.80D-04 at cycle   6 NSaved=   6.
 NSaved= 6 IEnMin= 6 EnMin= -649.164623282876     IErMin= 5 ErrMin= 7.06D-04
 ErrMax= 9.80D-04  0.00D+00 EMaxC= 1.00D-01 BMatC= 3.31D-05 BMatP= 4.82D-05
 IDIUse=3 WtCom= 9.93D-01 WtEn= 7.06D-03
 Coeff-Com: -0.593D-02 0.617D-02 0.219D-01-0.449D-01 0.393D+00 0.630D+00
 Coeff-En:   0.000D+00 0.000D+00 0.000D+00 0.000D+00 0.158D+00 0.842D+00
 Coeff:     -0.589D-02 0.613D-02 0.218D-01-0.446D-01 0.391D+00 0.632D+00
 Gap=     0.029 Goal=   None    Shift=    0.000
 RMSDP=2.22D-04 MaxDP=7.37D-03 DE=-6.68D-05 OVMax= 1.23D-02

 Cycle   7  Pass 1  IDiag  1:
 E= -649.164776681026     Delta-E=       -0.000153398150 Rises=F Damp=F
 DIIS: error= 5.47D-04 at cycle   7 NSaved=   7.
 NSaved= 7 IEnMin= 7 EnMin= -649.164776681026     IErMin= 7 ErrMin= 5.47D-04
 ErrMax= 5.47D-04  0.00D+00 EMaxC= 1.00D-01 BMatC= 8.93D-06 BMatP= 3.31D-05
 IDIUse=3 WtCom= 9.95D-01 WtEn= 5.47D-03
 Coeff-Com:  0.261D-02-0.409D-02 0.167D-01-0.316D-01 0.988D-01 0.194D+00
 Coeff-Com:  0.723D+00
 Coeff-En:   0.000D+00 0.000D+00 0.000D+00 0.000D+00 0.000D+00 0.000D+00
 Coeff-En:   0.100D+01
 Coeff:      0.260D-02-0.407D-02 0.166D-01-0.314D-01 0.983D-01 0.193D+00
 Coeff:      0.725D+00
 Gap=     0.029 Goal=   None    Shift=    0.000
 RMSDP=4.41D-05 MaxDP=1.80D-03 DE=-1.53D-04 OVMax= 3.21D-03

 Cycle   8  Pass 1  IDiag  1:
 E= -649.164805172669     Delta-E=       -0.000028491644 Rises=F Damp=F
 DIIS: error= 4.16D-04 at cycle   8 NSaved=   8.
 NSaved= 8 IEnMin= 8 EnMin= -649.164805172669     IErMin= 8 ErrMin= 4.16D-04
 ErrMax= 4.16D-04  0.00D+00 EMaxC= 1.00D-01 BMatC= 4.79D-06 BMatP= 8.93D-06
 IDIUse=3 WtCom= 9.96D-01 WtEn= 4.16D-03
 Coeff-Com:  0.377D-02-0.530D-02 0.142D-01-0.188D-01-0.145D-01-0.253D-02
 Coeff-Com:  0.277D+00 0.746D+00
 Coeff-En:   0.000D+00 0.000D+00 0.000D+00 0.000D+00 0.000D+00 0.000D+00
 Coeff-En:   0.000D+00 0.100D+01
 Coeff:      0.375D-02-0.528D-02 0.141D-01-0.188D-01-0.145D-01-0.252D-02
 Coeff:      0.276D+00 0.747D+00
 Gap=     0.029 Goal=   None    Shift=    0.000
 RMSDP=3.62D-05 MaxDP=2.11D-03 DE=-2.85D-05 OVMax= 3.36D-03

 Cycle   9  Pass 1  IDiag  1:
 E= -649.164824705999     Delta-E=       -0.000019533329 Rises=F Damp=F
 DIIS: error= 2.91D-04 at cycle   9 NSaved=   9.
 NSaved= 9 IEnMin= 9 EnMin= -649.164824705999     IErMin= 9 ErrMin= 2.91D-04
 ErrMax= 2.91D-04  0.00D+00 EMaxC= 1.00D-01 BMatC= 2.26D-06 BMatP= 4.79D-06
 IDIUse=3 WtCom= 9.97D-01 WtEn= 2.91D-03
 Coeff-Com:  0.150D-02-0.207D-02 0.899D-02-0.693D-02-0.242D-01-0.689D-01
 Coeff-Com: -0.151D+00 0.145D+00 0.110D+01
 Coeff-En:   0.000D+00 0.000D+00 0.000D+00 0.000D+00 0.000D+00 0.000D+00
 Coeff-En:   0.000D+00 0.000D+00 0.100D+01
 Coeff:      0.149D-02-0.207D-02 0.897D-02-0.691D-02-0.241D-01-0.687D-01
 Coeff:     -0.151D+00 0.144D+00 0.110D+01
 Gap=     0.029 Goal=   None    Shift=    0.000
 RMSDP=3.60D-05 MaxDP=1.77D-03 DE=-1.95D-05 OVMax= 3.54D-03

 Cycle  10  Pass 1  IDiag  1:
 E= -649.164838383401     Delta-E=       -0.000013677403 Rises=F Damp=F
 DIIS: error= 1.44D-04 at cycle  10 NSaved=  10.
 NSaved=10 IEnMin=10 EnMin= -649.164838383401     IErMin=10 ErrMin= 1.44D-04
 ErrMax= 1.44D-04  0.00D+00 EMaxC= 1.00D-01 BMatC= 5.69D-07 BMatP= 2.26D-06
 IDIUse=3 WtCom= 9.99D-01 WtEn= 1.44D-03
 Coeff-Com: -0.455D-03 0.681D-03 0.302D-02 0.932D-05-0.725D-02-0.393D-01
 Coeff-Com: -0.174D+00-0.287D+00 0.531D+00 0.974D+00
 Coeff-En:   0.000D+00 0.000D+00 0.000D+00 0.000D+00 0.000D+00 0.000D+00
 Coeff-En:   0.000D+00 0.000D+00 0.000D+00 0.100D+01
 Coeff:     -0.454D-03 0.680D-03 0.302D-02 0.931D-05-0.724D-02-0.393D-01
 Coeff:     -0.174D+00-0.286D+00 0.530D+00 0.974D+00
 Gap=     0.029 Goal=   None    Shift=    0.000
 RMSDP=2.48D-05 MaxDP=1.44D-03 DE=-1.37D-05 OVMax= 2.79D-03

 Cycle  11  Pass 1  IDiag  1:
 E= -649.164842733571     Delta-E=       -0.000004350169 Rises=F Damp=F
 DIIS: error= 2.90D-05 at cycle  11 NSaved=  11.
 NSaved=11 IEnMin=11 EnMin= -649.164842733571     IErMin=11 ErrMin= 2.90D-05
 ErrMax= 2.90D-05  0.00D+00 EMaxC= 1.00D-01 BMatC= 2.37D-08 BMatP= 5.69D-07
 IDIUse=1 WtCom= 1.00D+00 WtEn= 0.00D+00
 Coeff-Com:  0.633D-04-0.711D-04 0.172D-03-0.737D-04 0.678D-02 0.935D-02
 Coeff-Com:  0.245D-01-0.845D-02-0.178D+00-0.196D-01 0.116D+01
 Coeff:      0.633D-04-0.711D-04 0.172D-03-0.737D-04 0.678D-02 0.935D-02
 Coeff:      0.245D-01-0.845D-02-0.178D+00-0.196D-01 0.116D+01
 Gap=     0.029 Goal=   None    Shift=    0.000
 RMSDP=6.25D-06 MaxDP=3.68D-04 DE=-4.35D-06 OVMax= 6.61D-04

 Cycle  12  Pass 1  IDiag  1:
 E= -649.164842923874     Delta-E=       -0.000000190303 Rises=F Damp=F
 DIIS: error= 3.24D-06 at cycle  12 NSaved=  12.
 NSaved=12 IEnMin=12 EnMin= -649.164842923874     IErMin=12 ErrMin= 3.24D-06
 ErrMax= 3.24D-06  0.00D+00 EMaxC= 1.00D-01 BMatC= 3.52D-10 BMatP= 2.37D-08
 IDIUse=1 WtCom= 1.00D+00 WtEn= 0.00D+00
 Coeff-Com:  0.919D-05-0.993D-05 0.194D-04 0.407D-05 0.419D-03-0.619D-03
 Coeff-Com:  0.148D-02-0.287D-03 0.171D-02-0.375D-01 0.516D-01 0.983D+00
 Coeff:      0.919D-05-0.993D-05 0.194D-04 0.407D-05 0.419D-03-0.619D-03
 Coeff:      0.148D-02-0.287D-03 0.171D-02-0.375D-01 0.516D-01 0.983D+00
 Gap=     0.029 Goal=   None    Shift=    0.000
 RMSDP=1.61D-06 MaxDP=4.93D-05 DE=-1.90D-07 OVMax= 7.57D-05

 Cycle  13  Pass 1  IDiag  1:
 E= -649.164842926634     Delta-E=       -0.000000002760 Rises=F Damp=F
 DIIS: error= 3.55D-07 at cycle  13 NSaved=  13.
 NSaved=13 IEnMin=13 EnMin= -649.164842926634     IErMin=13 ErrMin= 3.55D-07
 ErrMax= 3.55D-07  0.00D+00 EMaxC= 1.00D-01 BMatC= 1.10D-11 BMatP= 3.52D-10
 IDIUse=1 WtCom= 1.00D+00 WtEn= 0.00D+00
 Coeff-Com: -0.939D-05 0.122D-04 0.215D-05-0.113D-05-0.577D-05-0.668D-03
 Coeff-Com: -0.939D-03-0.107D-02 0.901D-02-0.590D-02-0.489D-01 0.347D+00
 Coeff-Com:  0.701D+00
 Coeff:     -0.939D-05 0.122D-04 0.215D-05-0.113D-05-0.577D-05-0.668D-03
 Coeff:     -0.939D-03-0.107D-02 0.901D-02-0.590D-02-0.489D-01 0.347D+00
 Coeff:      0.701D+00
 Gap=     0.029 Goal=   None    Shift=    0.000
 RMSDP=1.50D-07 MaxDP=8.19D-06 DE=-2.76D-09 OVMax= 1.01D-05

 Cycle  14  Pass 1  IDiag  1:
 E= -649.164842926697     Delta-E=       -0.000000000063 Rises=F Damp=F
 DIIS: error= 4.43D-08 at cycle  14 NSaved=  14.
 NSaved=14 IEnMin=14 EnMin= -649.164842926697     IErMin=14 ErrMin= 4.43D-08
 ErrMax= 4.43D-08  0.00D+00 EMaxC= 1.00D-01 BMatC= 1.73D-13 BMatP= 1.10D-11
 IDIUse=1 WtCom= 1.00D+00 WtEn= 0.00D+00
 Coeff-Com: -0.267D-05 0.349D-05-0.534D-06 0.123D-05-0.316D-04-0.107D-03
 Coeff-Com: -0.417D-03-0.270D-03 0.224D-02 0.107D-03-0.122D-01 0.206D-01
 Coeff-Com:  0.114D+00 0.876D+00
 Coeff:     -0.267D-05 0.349D-05-0.534D-06 0.123D-05-0.316D-04-0.107D-03
 Coeff:     -0.417D-03-0.270D-03 0.224D-02 0.107D-03-0.122D-01 0.206D-01
 Coeff:      0.114D+00 0.876D+00
 Gap=     0.029 Goal=   None    Shift=    0.000
 RMSDP=4.48D-08 MaxDP=1.43D-06 DE=-6.29D-11 OVMax= 2.10D-06

 Cycle  15  Pass 1  IDiag  1:
 E= -649.164842926700     Delta-E=       -0.000000000003 Rises=F Damp=F
 DIIS: error= 3.39D-08 at cycle  15 NSaved=  15.
 NSaved=15 IEnMin=15 EnMin= -649.164842926700     IErMin=15 ErrMin= 3.39D-08
 ErrMax= 3.39D-08  0.00D+00 EMaxC= 1.00D-01 BMatC= 3.92D-14 BMatP= 1.73D-13
 IDIUse=1 WtCom= 1.00D+00 WtEn= 0.00D+00
 Coeff-Com: -0.237D-06 0.302D-06-0.284D-08-0.260D-06-0.177D-05 0.716D-05
 Coeff-Com: -0.474D-04-0.414D-04 0.183D-03 0.413D-03-0.107D-02-0.802D-02
 Coeff-Com:  0.744D-03 0.253D+00 0.755D+00
 Coeff:     -0.237D-06 0.302D-06-0.284D-08-0.260D-06-0.177D-05 0.716D-05
 Coeff:     -0.474D-04-0.414D-04 0.183D-03 0.413D-03-0.107D-02-0.802D-02
 Coeff:      0.744D-03 0.253D+00 0.755D+00
 Gap=     0.029 Goal=   None    Shift=    0.000
 RMSDP=9.91D-09 MaxDP=5.13D-07 DE=-2.96D-12 OVMax= 9.93D-07

 SCF Done:  E(RB3LYP) =  -649.164842927     A.U. after   15 cycles
            NFock= 15  Conv=0.99D-08     -V/T= 2.0028
 KE= 6.473275593100D+02 PE=-1.733760108939D+03 EE= 3.497776023464D+02
 Leave Link  502 at Fri Oct  6 22:03:53 2023, MaxMem=  1610612736 cpu:             163.8 elap:             102.8
 (Enter /home/sekinelabo/g16/l601.exe)
 Copying SCF densities to generalized density rwf, IOpCl= 0 IROHF=0.

 **********************************************************************

            Population analysis using the SCF Density.

 **********************************************************************

 Orbital symmetries:
       Occupied  (A) (A) (A) (A) (A) (A) (A) (A) (A) (A) (A) (A)
                 (A) (A) (A) (A) (A) (A) (A) (A) (A) (A)
       Virtual   (A) (A) (A) (A) (A) (A) (A) (A) (A) (A) (A) (A)
                 (A) (A) (A) (A) (A) (A) (A) (A) (A) (A) (A) (A)
                 (A) (A) (A) (A) (A) (A) (A) (A) (A) (A) (A) (A)
                 (A) (A) (A) (A) (A) (A) (A) (A) (A) (A) (A) (A)
                 (A) (A) (A) (A) (A) (A) (A) (A) (A) (A) (A) (A)
                 (A) (A) (A) (A) (A) (A) (A) (A) (A) (A) (A) (A)
                 (A) (A) (A) (A) (A) (A) (A) (A) (A) (A) (A) (A)
                 (A) (A) (A) (A) (A) (A) (A) (A) (A) (A) (A) (A)
                 (A) (A)
 The electronic state is 1-A.
 Alpha  occ. eigenvalues --  -38.46931 -38.45774 -38.45395 -38.45068  -2.22820
 Alpha  occ. eigenvalues --   -2.21668  -2.21081  -2.20766  -1.17125  -1.16396
 Alpha  occ. eigenvalues --   -1.16311  -1.15260  -1.15226  -1.15131  -1.14762
 Alpha  occ. eigenvalues --   -1.14762  -1.14710  -1.14446  -1.14446  -1.14393
 Alpha  occ. eigenvalues --   -0.14900  -0.10909
 Alpha virt. eigenvalues --   -0.07961  -0.04941  -0.03374  -0.03086  -0.01636
 Alpha virt. eigenvalues --   -0.01305  -0.01067  -0.00325  -0.00208  -0.00054
 Alpha virt. eigenvalues --    0.00365   0.00807   0.00946   0.01355   0.01405
 Alpha virt. eigenvalues --    0.01470   0.01584   0.01758   0.01787   0.02132
 Alpha virt. eigenvalues --    0.02263   0.02335   0.02370   0.02716   0.03148
 Alpha virt. eigenvalues --    0.03244   0.03278   0.03527   0.04635   0.05051
 Alpha virt. eigenvalues --    0.07001   0.07228   0.07312   0.07835   0.08311
 Alpha virt. eigenvalues --    0.08344   0.08449   0.08496   0.09342   0.09698
 Alpha virt. eigenvalues --    0.10181   0.11107   0.11492   0.12139   0.13264
 Alpha virt. eigenvalues --    0.16852   0.29330   0.29496   0.29734   0.29906
 Alpha virt. eigenvalues --    0.33727   0.34521   0.34846   0.34896   0.35035
 Alpha virt. eigenvalues --    0.35120   0.35230   0.35377   0.35508   0.37199
 Alpha virt. eigenvalues --    0.38292   0.40657   0.41848   0.42053   0.42783
 Alpha virt. eigenvalues --    0.43407   0.43599   0.43835   0.44418   0.44833
 Alpha virt. eigenvalues --    0.45955   0.46592   0.48380   0.49483   0.52295
 Alpha virt. eigenvalues --    0.57429   0.58272   0.89667   2.01356   2.02660
 Alpha virt. eigenvalues --    2.05432   2.11520   4.41335   4.43195   4.43651
 Alpha virt. eigenvalues --    4.43936   4.43959   4.44189   4.44768   4.45955
 Alpha virt. eigenvalues --    4.46876   4.49633   4.50854   4.78665  96.20654
 Alpha virt. eigenvalues --   96.23132  96.25560  96.33092
          Condensed to atoms (all electrons):
               1          2          3          4
     1  Na  10.842603   0.111149   0.042490  -0.024903
     2  Na   0.111149  10.588686   0.329343   0.169236
     3  Na   0.042490   0.329343  10.512404   0.022259
     4  Na  -0.024903   0.169236   0.022259  10.757159
 Mulliken charges:
               1
     1  Na   0.028662
     2  Na  -0.198415
     3  Na   0.093504
     4  Na   0.076249
 Sum of Mulliken charges =   0.00000
 Mulliken charges with hydrogens summed into heavy atoms:
               1
     1  Na   0.028662
     2  Na  -0.198415
     3  Na   0.093504
     4  Na   0.076249
 Electronic spatial extent (au):  <R**2>=           1857.4227
 Charge=             -0.0000 electrons
 Dipole moment (field-independent basis, Debye):
    X=             -0.0083    Y=              0.5341    Z=             -0.0693  Tot=              0.5386
 Quadrupole moment (field-independent basis, Debye-Ang):
   XX=            -37.1179   YY=            -35.9739   ZZ=            -44.8492
   XY=              0.8375   XZ=             -0.2076   YZ=             -0.7392
 Traceless Quadrupole moment (field-independent basis, Debye-Ang):
   XX=              2.1957   YY=              3.3398   ZZ=             -5.5355
   XY=              0.8375   XZ=             -0.2076   YZ=             -0.7392
 Octapole moment (field-independent basis, Debye-Ang**2):
  XXX=              7.5427  YYY=             22.4588  ZZZ=              0.6207  XYY=             -1.9103
  XXY=            -15.3844  XXZ=             -5.4448  XZZ=              0.7780  YZZ=              1.8103
  YYZ=             -0.0278  XYZ=             -0.0597
 Hexadecapole moment (field-independent basis, Debye-Ang**3):
 XXXX=          -2454.9409 YYYY=           -351.3224 ZZZZ=           -201.3752 XXXY=             27.1901
 XXXZ=             -7.3546 YYYX=              2.0716 YYYZ=             -4.0284 ZZZX=             -1.1513
 ZZZY=             -3.6641 XXYY=           -563.0820 XXZZ=           -537.3660 YYZZ=            -97.4539
 XXYZ=              2.7528 YYXZ=             -0.3002 ZZXY=              1.2875
 N-N= 8.749010435550D+01 E-N=-1.733760107542D+03  KE= 6.473275593100D+02
 No NMR shielding tensors so no spin-rotation constants.
 Leave Link  601 at Fri Oct  6 22:03:58 2023, MaxMem=  1610612736 cpu:               8.9 elap:               5.6
 (Enter /home/sekinelabo/g16/l701.exe)
 ... and contract with generalized density number  0.
 Compute integral first derivatives.
 Leave Link  701 at Fri Oct  6 22:04:03 2023, MaxMem=  1610612736 cpu:               6.8 elap:               4.4
 (Enter /home/sekinelabo/g16/l702.exe)
 L702 exits ... SP integral derivatives will be done elsewhere.
 Leave Link  702 at Fri Oct  6 22:04:03 2023, MaxMem=  1610612736 cpu:               0.6 elap:               0.4
 (Enter /home/sekinelabo/g16/l703.exe)
 Integral derivatives from FoFJK, PRISM(SPDF).
 Compute integral first derivatives, UseDBF=F ICtDFT=           0.
 Calling FoFJK, ICntrl=      2127 FMM=F ISym2X=0 I1Cent= 0 IOpClX= 0 NMat=1 NMatS=1 NMatT=0.
 FoFJK:  IHMeth= 1 ICntrl=    2127 DoSepK=F KAlg= 0 I1Cent=           0 FoldK=F
 IRaf=         0 NMat=       1 IRICut=       1 DoRegI=T DoRafI=F ISym2E= 0 IDoP0=0 IntGTp=1.
 FoFCou: FMM=F IPFlag=           0 FMFlag=      100000 FMFlg1=         800
         NFxFlg=           0 DoJE=F BraDBF=F KetDBF=F FulRan=T
         wScrn=  0.000000 ICntrl=      2127 IOpCl=  0 I1Cent=           0 NGrid=           0
         NMat0=    1 NMatS0=      1 NMatT0=    0 NMatD0=    1 NMtDS0=    0 NMtDT0=    0
 Symmetry not used in FoFCou.
 Leave Link  703 at Fri Oct  6 22:04:11 2023, MaxMem=  1610612736 cpu:              13.1 elap:               7.9
 (Enter /home/sekinelabo/g16/l716.exe)
 Dipole        =-3.26761291D-03 2.10111599D-01-2.72488931D-02
 ***** Axes restored to original set *****
 -------------------------------------------------------------------
 Center     Atomic                   Forces (Hartrees/Bohr)
 Number     Number              X              Y              Z
 -------------------------------------------------------------------
      1       11          -0.000918162    0.000128361    0.006136685
      2       11          -0.026478397   -0.000952958   -0.006359456
      3       11           0.023509189   -0.000444405    0.004782940
      4       11           0.003887370    0.001269002   -0.004560169
 -------------------------------------------------------------------
 Cartesian Forces:  Max     0.026478397 RMS     0.010779022
 Z-matrix is all fixed cartesians, so copy forces.
 Force constants in Cartesian coordinates: 
                1             2             3             4             5 
      1  0.100000D+01
      2  0.000000D+00  0.100000D+01
      3  0.000000D+00  0.000000D+00  0.100000D+01
      4  0.000000D+00  0.000000D+00  0.000000D+00  0.109518D+00
      5  0.000000D+00  0.000000D+00  0.000000D+00  0.000000D+00  0.000000D+00
      6  0.000000D+00  0.000000D+00  0.000000D+00  0.323156D-01  0.000000D+00
      7  0.000000D+00  0.000000D+00  0.000000D+00 -0.109518D+00  0.000000D+00
      8  0.000000D+00  0.000000D+00  0.000000D+00  0.000000D+00  0.000000D+00
      9  0.000000D+00  0.000000D+00  0.000000D+00 -0.323156D-01  0.000000D+00
     10  0.000000D+00  0.000000D+00  0.000000D+00  0.000000D+00  0.000000D+00
     11  0.000000D+00  0.000000D+00  0.000000D+00  0.000000D+00  0.000000D+00
     12  0.000000D+00  0.000000D+00  0.000000D+00  0.000000D+00  0.000000D+00
                6             7             8             9            10 
      6  0.953542D-02
      7 -0.323156D-01  0.109518D+00
      8  0.000000D+00  0.000000D+00  0.000000D+00
      9 -0.953542D-02  0.323156D-01  0.000000D+00  0.953542D-02
     10  0.000000D+00  0.000000D+00  0.000000D+00  0.000000D+00  0.100000D+01
     11  0.000000D+00  0.000000D+00  0.000000D+00  0.000000D+00  0.000000D+00
     12  0.000000D+00  0.000000D+00  0.000000D+00  0.000000D+00  0.000000D+00
               11            12 
     11  0.100000D+01
     12  0.000000D+00  0.100000D+01
 Leave Link  716 at Fri Oct  6 22:04:12 2023, MaxMem=  1610612736 cpu:               0.7 elap:               0.5
 (Enter /home/sekinelabo/g16/l103.exe)

 GradGradGradGradGradGradGradGradGradGradGradGradGradGradGradGradGradGrad
 Berny optimization.
 Search for a local minimum.
 Step number   1 out of a maximum of    2
 All quantities printed in internal units (Hartrees-Bohrs-Radians)
 Second derivative matrix not updated -- first step.
 The second derivative matrix:
                          X1        Y1        Z1        X2        Y2
           X1           1.00000
           Y1          -0.00000   1.00000
           Z1          -0.00000   0.00000   1.00000
           X2           0.00000   0.00000   0.00000   0.10952
           Y2           0.00000   0.00000   0.00000  -0.00000  -0.00000
           Z2           0.00000   0.00000   0.00000   0.03232  -0.00000
           X3           0.00000   0.00000   0.00000  -0.10952   0.00000
           Y3           0.00000   0.00000   0.00000   0.00000   0.00000
           Z3           0.00000   0.00000   0.00000  -0.03232   0.00000
           X4           0.00000   0.00000   0.00000   0.00000   0.00000
           Y4           0.00000   0.00000   0.00000   0.00000   0.00000
           Z4           0.00000   0.00000   0.00000   0.00000   0.00000
                          Z2        X3        Y3        Z3        X4
           Z2           0.00954
           X3          -0.03232   0.10952
           Y3           0.00000  -0.00000  -0.00000
           Z3          -0.00954   0.03232  -0.00000   0.00954
           X4           0.00000   0.00000   0.00000   0.00000   1.00000
           Y4           0.00000   0.00000   0.00000   0.00000  -0.00000
           Z4           0.00000   0.00000   0.00000   0.00000  -0.00000
                          Y4        Z4
           Y4           1.00000
           Z4           0.00000   1.00000
 ITU=  0
     Eigenvalues ---    0.06140   0.23811   0.31960   0.50000   0.51959
     Eigenvalues ---    1.00000
 Angle between quadratic step and forces=  15.18 degrees.
 Linear search not attempted -- first point.
 B after Tr=    -0.000000    0.000000    0.000000
         Rot=    1.000000   -0.000000   -0.000000    0.000000 Ang=   0.00 deg.
 Variable       Old X    -DE/DX   Delta X   Delta X   Delta X     New X
                                 (Linear)    (Quad)   (Total)
    X1       -0.00000  -0.00092   0.00000   0.00725   0.00725   0.00725
    Y1        0.00000   0.00013   0.00000   0.00074   0.00074   0.00074
    Z1       -0.00000   0.00614   0.00000   0.00858   0.00858   0.00858
    X2       -4.32575  -0.02648   0.00000  -0.11477  -0.11477  -4.44052
    Y2        0.00000  -0.00095   0.00000  -0.00452  -0.00452  -0.00452
    Z2        8.07451  -0.00636   0.00000  -0.00332  -0.00332   8.07119
    X3       -0.00000   0.02351   0.00000   0.10710   0.10710   0.10710
    Y3       -0.00000  -0.00044   0.00000   0.00127   0.00127   0.00127
    Z3        9.35092   0.00478   0.00000   0.00304   0.00304   9.35395
    X4       -8.03057   0.00389   0.00000   0.00042   0.00042  -8.03016
    Y4       -1.56034   0.00127   0.00000   0.00252   0.00252  -1.55782
    Z4       14.94481  -0.00456   0.00000  -0.00830  -0.00830  14.93651
         Item               Value     Threshold  Converged?
 Maximum Force            0.026478     0.000450     NO 
 RMS     Force            0.010779     0.000300     NO 
 Maximum Displacement     0.114769     0.001800     NO 
 RMS     Displacement     0.045541     0.001200     NO 
 Predicted change in Energy=-2.842467D-03
 GradGradGradGradGradGradGradGradGradGradGradGradGradGradGradGradGradGrad

 Leave Link  103 at Fri Oct  6 22:04:14 2023, MaxMem=  1610612736 cpu:               3.6 elap:               2.2
 (Enter /home/sekinelabo/g16/l9999.exe)
 1\1\GINC-SEKINELABO-XA7R-R37\Force\RB3LYP\6-311+G(d)\Na4\SEKINELABO\06
 -Oct-2023\0\\#p B3LYP/6-311+g(d) force\\\0,1\Na,0.,0.,0.\Na,-2.2890867
 9,0.,4.2728468828\Na,0.,0.,4.9482917563\Na,-4.2495950709,-0.8256942969
 ,7.9084523482\\Version=ES64L-G16RevB.01\State=1-A\HF=-649.1648429\RMSD
 =9.908e-09\RMSF=1.078e-02\Dipole=0.1870237,-0.0037193,0.0995407\Quadru
 pole=1.7481257,-4.0930301,2.3449044,0.4031375,0.7488297,-0.469792\PG=C
 01 [X(Na4)]\\@


 IT CANNOT BE MY BEAUTY, FOR I HAVE NONE; AND IT CANNOT BE MY WIT,
 FOR HE HAS NOT ENOUGH TO KNOW THAT I HAVE ANY.
 -- CATHARINE SEDLEY, PUZZLED ABOUT WHY SHE WAS MISTRESS TO JAMES II
 Job cpu time:       0 days  0 hours  4 minutes  1.9 seconds.
 Elapsed time:       0 days  0 hours  2 minutes 31.3 seconds.
 File lengths (MBytes):  RWF=     10 Int=      0 D2E=      0 Chk=      2 Scr=      1
 Normal termination of Gaussian 16 at Fri Oct  6 22:04:15 2023.
 Initial command:
 /home/sekinelabo/g16/l1.exe "/home/sekinelabo/g16temp/Gau-708794.inp" -scrdir="/home/sekinelabo/g16temp/"
 Entering Link 1 = /home/sekinelabo/g16/l1.exe PID=    712970.
  
 Copyright (c) 1988-2017, Gaussian, Inc.  All Rights Reserved.
  
 This is part of the Gaussian(R) 16 program.  It is based on
 the Gaussian(R) 09 system (copyright 2009, Gaussian, Inc.),
 the Gaussian(R) 03 system (copyright 2003, Gaussian, Inc.),
 the Gaussian(R) 98 system (copyright 1998, Gaussian, Inc.),
 the Gaussian(R) 94 system (copyright 1995, Gaussian, Inc.),
 the Gaussian 92(TM) system (copyright 1992, Gaussian, Inc.),
 the Gaussian 90(TM) system (copyright 1990, Gaussian, Inc.),
 the Gaussian 88(TM) system (copyright 1988, Gaussian, Inc.),
 the Gaussian 86(TM) system (copyright 1986, Carnegie Mellon
 University), and the Gaussian 82(TM) system (copyright 1983,
 Carnegie Mellon University). Gaussian is a federally registered
 trademark of Gaussian, Inc.
  
 This software contains proprietary and confidential information,
 including trade secrets, belonging to Gaussian, Inc.
  
 This software is provided under written license and may be
 used, copied, transmitted, or stored only in accord with that
 written license.
  
 The following legend is applicable only to US Government
 contracts under FAR:
  
                    RESTRICTED RIGHTS LEGEND
  
 Use, reproduction and disclosure by the US Government is
 subject to restrictions as set forth in subparagraphs (a)
 and (c) of the Commercial Computer Software - Restricted
 Rights clause in FAR 52.227-19.
  
 Gaussian, Inc.
 340 Quinnipiac St., Bldg. 40, Wallingford CT 06492
  
  
 ---------------------------------------------------------------
 Warning -- This program may not be used in any manner that
 competes with the business of Gaussian, Inc. or will provide
 assistance to any competitor of Gaussian, Inc.  The licensee
 of this program is prohibited from giving any competitor of
 Gaussian, Inc. access to this program.  By using this program,
 the user acknowledges that Gaussian, Inc. is engaged in the
 business of creating and licensing software in the field of
 computational chemistry and represents and warrants to the
 licensee that it is not a competitor of Gaussian, Inc. and that
 it will not use this program in any manner prohibited above.
 ---------------------------------------------------------------
  

 Cite this work as:
 Gaussian 16, Revision B.01,
 M. J. Frisch, G. W. Trucks, H. B. Schlegel, G. E. Scuseria, 
 M. A. Robb, J. R. Cheeseman, G. Scalmani, V. Barone, 
 G. A. Petersson, H. Nakatsuji, X. Li, M. Caricato, A. V. Marenich, 
 J. Bloino, B. G. Janesko, R. Gomperts, B. Mennucci, H. P. Hratchian, 
 J. V. Ortiz, A. F. Izmaylov, J. L. Sonnenberg, D. Williams-Young, 
 F. Ding, F. Lipparini, F. Egidi, J. Goings, B. Peng, A. Petrone, 
 T. Henderson, D. Ranasinghe, V. G. Zakrzewski, J. Gao, N. Rega, 
 G. Zheng, W. Liang, M. Hada, M. Ehara, K. Toyota, R. Fukuda, 
 J. Hasegawa, M. Ishida, T. Nakajima, Y. Honda, O. Kitao, H. Nakai, 
 T. Vreven, K. Throssell, J. A. Montgomery, Jr., J. E. Peralta, 
 F. Ogliaro, M. J. Bearpark, J. J. Heyd, E. N. Brothers, K. N. Kudin, 
 V. N. Staroverov, T. A. Keith, R. Kobayashi, J. Normand, 
 K. Raghavachari, A. P. Rendell, J. C. Burant, S. S. Iyengar, 
 J. Tomasi, M. Cossi, J. M. Millam, M. Klene, C. Adamo, R. Cammi, 
 J. W. Ochterski, R. L. Martin, K. Morokuma, O. Farkas, 
 J. B. Foresman, and D. J. Fox, Gaussian, Inc., Wallingford CT, 2016.
 
 ******************************************
 Gaussian 16:  ES64L-G16RevB.01 20-Dec-2017
                 6-Oct-2023 
 ******************************************
 %NProcShared=16
 Will use up to   16 processors via shared memory.
 %mem=12GB
 %Chk=checkpoint.chk
 -------------------------
 #p B3LYP/6-311+g(d) force
 -------------------------
 1/10=7,30=1,38=1/1,3;
 2/12=2,17=6,18=5,40=1/2;
 3/5=4,6=6,7=11,11=2,25=1,30=1,71=1,74=-5/1,2,3;
 4//1;
 5/5=2,38=5/2;
 6/7=2,8=2,9=2,10=2,28=1/1;
 7/29=1/1,2,3,16;
 1/10=7,30=1/3;
 99//99;
 Leave Link    1 at Fri Oct  6 22:04:15 2023, MaxMem=  1610612736 cpu:               0.5 elap:               0.4
 (Enter /home/sekinelabo/g16/l101.exe)


 Symbolic Z-matrix:
 Charge =  0 Multiplicity = 1
 Na                    0.        0.        0. 
 Na                   -2.20641   0.        4.28977 
 Na                    0.        0.        5.46762 
 Na                    1.06225  -1.74141   7.86292 
 
 ITRead=  0  0  0  0
 MicOpt= -1 -1 -1 -1
 NAtoms=      4 NQM=        4 NQMF=       0 NMMI=      0 NMMIF=      0
                NMic=       0 NMicF=      0.
                    Isotopes and Nuclear Properties:
 (Nuclear quadrupole moments (NQMom) in fm**2, nuclear magnetic moments (NMagM)
  in nuclear magnetons)

  Atom         1           2           3           4
 IAtWgt=          23          23          23          23
 AtmWgt=  22.9897697  22.9897697  22.9897697  22.9897697
 NucSpn=           3           3           3           3
 AtZEff=  -0.0000000  -0.0000000  -0.0000000  -0.0000000
 NQMom=   10.4000000  10.4000000  10.4000000  10.4000000
 NMagM=    2.2175200   2.2175200   2.2175200   2.2175200
 AtZNuc=  11.0000000  11.0000000  11.0000000  11.0000000
 Leave Link  101 at Fri Oct  6 22:04:16 2023, MaxMem=  1610612736 cpu:               2.0 elap:               1.3
 (Enter /home/sekinelabo/g16/l103.exe)

 GradGradGradGradGradGradGradGradGradGradGradGradGradGradGradGradGradGrad
 Berny optimization.
 Initialization pass.
 Trust Radius=3.00D-01 FncErr=1.00D-07 GrdErr=1.00D-07 EigMax=2.50D+02 EigMin=1.00D-04
 Number of steps in this run=      2 maximum allowed number of steps=      2.
 GradGradGradGradGradGradGradGradGradGradGradGradGradGradGradGradGradGrad

 Leave Link  103 at Fri Oct  6 22:04:17 2023, MaxMem=  1610612736 cpu:               0.5 elap:               0.4
 (Enter /home/sekinelabo/g16/l202.exe)
                          Input orientation:                          
 ---------------------------------------------------------------------
 Center     Atomic      Atomic             Coordinates (Angstroms)
 Number     Number       Type             X           Y           Z
 ---------------------------------------------------------------------
      1         11           0        0.000000    0.000000    0.000000
      2         11           0       -2.206410    0.000000    4.289770
      3         11           0        0.000000    0.000000    5.467622
      4         11           0        1.062252   -1.741409    7.862923
 ---------------------------------------------------------------------
                    Distance matrix (angstroms):
                    1          2          3          4
     1  Na   0.000000
     2  Na   4.823938   0.000000
     3  Na   5.467622   2.501116   0.000000
     4  Na   8.123204   5.146268   3.146165   0.000000
 Stoichiometry    Na4
 Framework group  C1[X(Na4)]
 Deg. of freedom     6
 Full point group                 C1      NOp   1
 Largest Abelian subgroup         C1      NOp   1
 Largest concise Abelian subgroup C1      NOp   1
                         Standard orientation:                         
 ---------------------------------------------------------------------
 Center     Atomic      Atomic             Coordinates (Angstroms)
 Number     Number       Type             X           Y           Z
 ---------------------------------------------------------------------
      1         11           0        4.313583   -1.029126   -0.099835
      2         11           0        0.481790    1.898238   -0.234990
      3         11           0       -0.988912    0.076814    0.645369
      4         11           0       -3.806461   -0.945927   -0.310544
 ---------------------------------------------------------------------
 Rotational constants (GHZ):           3.5795497           0.6301618           0.5513710
 Leave Link  202 at Fri Oct  6 22:04:17 2023, MaxMem=  1610612736 cpu:               1.2 elap:               0.8
 (Enter /home/sekinelabo/g16/l301.exe)
 Standard basis: 6-311+G(d) (5D, 7F)
 Ernie: Thresh=  0.10000D-02 Tol=  0.10000D-05 Strict=F.
 There are   124 symmetry adapted cartesian basis functions of A   symmetry.
 There are   120 symmetry adapted basis functions of A   symmetry.
   120 basis functions,   200 primitive gaussians,   124 cartesian basis functions
    22 alpha electrons       22 beta electrons
       nuclear repulsion energy        91.2614989993 Hartrees.
 IExCor=  402 DFT=T Ex+Corr=B3LYP ExCW=0 ScaHFX=  0.200000
 ScaDFX=  0.800000  0.720000  1.000000  0.810000 ScalE2=  1.000000  1.000000
 IRadAn=      5 IRanWt=     -1 IRanGd=            0 ICorTp=0 IEmpDi=  4
 NAtoms=    4 NActive=    4 NUniq=    4 SFac= 1.00D+00 NAtFMM=   60 NAOKFM=F Big=F
 Integral buffers will be    131072 words long.
 Raffenetti 2 integral format.
 Two-electron integral symmetry is turned on.
 Leave Link  301 at Fri Oct  6 22:04:18 2023, MaxMem=  1610612736 cpu:               0.8 elap:               0.5
 (Enter /home/sekinelabo/g16/l302.exe)
 NPDir=0 NMtPBC=     1 NCelOv=     1 NCel=       1 NClECP=     1 NCelD=      1
         NCelK=      1 NCelE2=     1 NClLst=     1 CellRange=     0.0.
 One-electron integrals computed using PRISM.
 One-electron integral symmetry used in STVInt
 NBasis=   120 RedAO= T EigKep=  1.96D-05  NBF=   120
 NBsUse=   120 1.00D-06 EigRej= -1.00D+00 NBFU=   120
 Precomputing XC quadrature grid using
 IXCGrd= 4 IRadAn=           5 IRanWt=          -1 IRanGd=           0 AccXCQ= 0.00D+00.
 Generated NRdTot=       0 NPtTot=           0 NUsed=           0 NTot=          32
 NSgBfM=   114   114   114   114   114 MxSgAt=     4 MxSgA2=     4.
 Leave Link  302 at Fri Oct  6 22:04:31 2023, MaxMem=  1610612736 cpu:              20.2 elap:              12.8
 (Enter /home/sekinelabo/g16/l303.exe)
 DipDrv:  MaxL=1.
 Leave Link  303 at Fri Oct  6 22:04:33 2023, MaxMem=  1610612736 cpu:               2.9 elap:               1.9
 (Enter /home/sekinelabo/g16/l401.exe)
 ExpMin= 7.60D-03 ExpMax= 3.62D+04 ExpMxC= 1.21D+03 IAcc=3 IRadAn=         5 AccDes= 0.00D+00
 Harris functional with IExCor=  402 and IRadAn=       5 diagonalized for initial guess.
 HarFok:  IExCor=  402 AccDes= 0.00D+00 IRadAn=         5 IDoV= 1 UseB2=F ITyADJ=14
 ICtDFT=  3500011 ScaDFX=  1.000000  1.000000  1.000000  1.000000
 FoFCou: FMM=F IPFlag=           0 FMFlag=      100000 FMFlg1=           0
[...]
 Coeff-Com:  0.261D-01-0.105D-01-0.627D-02 0.262D-01 0.111D+00 0.869D+00
 Coeff:      0.170D-03-0.230D-03-0.438D-03-0.179D-02-0.470D-02-0.852D-02
 Coeff:      0.261D-01-0.105D-01-0.627D-02 0.262D-01 0.111D+00 0.869D+00
 Gap=     0.026 Goal=   None    Shift=    0.000
 RMSDP=2.20D-05 MaxDP=9.65D-04 DE=-5.31D-06 OVMax= 1.73D-03

 Cycle  13  Pass 1  IDiag  1:
 E= -649.167421157999     Delta-E=       -0.000001299956 Rises=F Damp=F
 DIIS: error= 7.80D-06 at cycle  13 NSaved=  13.
 NSaved=13 IEnMin=13 EnMin= -649.167421157999     IErMin=13 ErrMin= 7.80D-06
 ErrMax= 7.80D-06  0.00D+00 EMaxC= 1.00D-01 BMatC= 1.05D-09 BMatP= 1.56D-07
 IDIUse=1 WtCom= 1.00D+00 WtEn= 0.00D+00
 Coeff-Com:  0.926D-04-0.124D-03-0.613D-04-0.450D-03 0.530D-03 0.175D-02
 Coeff-Com: -0.127D-02 0.249D-02-0.137D-02-0.205D-02-0.687D-02 0.993D-01
 Coeff-Com:  0.908D+00
 Coeff:      0.926D-04-0.124D-03-0.613D-04-0.450D-03 0.530D-03 0.175D-02
 Coeff:     -0.127D-02 0.249D-02-0.137D-02-0.205D-02-0.687D-02 0.993D-01
 Coeff:      0.908D+00
 Gap=     0.026 Goal=   None    Shift=    0.000
 RMSDP=4.98D-06 MaxDP=1.78D-04 DE=-1.30D-06 OVMax= 3.49D-04

 Cycle  14  Pass 1  IDiag  1:
 E= -649.167421152063     Delta-E=        0.000000005936 Rises=F Damp=F
 DIIS: error= 1.01D-05 at cycle  14 NSaved=  14.
 NSaved=14 IEnMin=13 EnMin= -649.167421157999     IErMin=13 ErrMin= 7.80D-06
 ErrMax= 1.01D-05  0.00D+00 EMaxC= 1.00D-01 BMatC= 1.68D-09 BMatP= 1.05D-09
 IDIUse=1 WtCom= 1.00D+00 WtEn= 0.00D+00
 Coeff-Com: -0.142D-04 0.204D-04 0.161D-04 0.108D-03 0.440D-03 0.122D-02
 Coeff-Com: -0.328D-02 0.208D-02-0.175D-03-0.369D-02-0.120D-01-0.216D-01
 Coeff-Com:  0.372D+00 0.665D+00
 Coeff:     -0.142D-04 0.204D-04 0.161D-04 0.108D-03 0.440D-03 0.122D-02
 Coeff:     -0.328D-02 0.208D-02-0.175D-03-0.369D-02-0.120D-01-0.216D-01
 Coeff:      0.372D+00 0.665D+00
 Gap=     0.026 Goal=   None    Shift=    0.000
 RMSDP=2.96D-06 MaxDP=9.68D-05 DE= 5.94D-09 OVMax= 2.05D-04

 Cycle  15  Pass 1  IDiag  1:
 E= -649.167421166925     Delta-E=       -0.000000014862 Rises=F Damp=F
 DIIS: error= 3.51D-07 at cycle  15 NSaved=  15.
 NSaved=15 IEnMin=15 EnMin= -649.167421166925     IErMin=15 ErrMin= 3.51D-07
 ErrMax= 3.51D-07  0.00D+00 EMaxC= 1.00D-01 BMatC= 2.37D-12 BMatP= 1.05D-09
 IDIUse=1 WtCom= 1.00D+00 WtEn= 0.00D+00
 Coeff-Com: -0.447D-05 0.621D-05 0.630D-05 0.245D-04 0.499D-05 0.150D-03
 Coeff-Com: -0.428D-03 0.211D-03 0.101D-03-0.117D-03-0.154D-02-0.573D-02
 Coeff-Com:  0.801D-02 0.768D-01 0.922D+00
 Coeff:     -0.447D-05 0.621D-05 0.630D-05 0.245D-04 0.499D-05 0.150D-03
 Coeff:     -0.428D-03 0.211D-03 0.101D-03-0.117D-03-0.154D-02-0.573D-02
 Coeff:      0.801D-02 0.768D-01 0.922D+00
 Gap=     0.026 Goal=   None    Shift=    0.000
 RMSDP=1.83D-07 MaxDP=6.41D-06 DE=-1.49D-08 OVMax= 1.05D-05

 Cycle  16  Pass 1  IDiag  1:
 E= -649.167421166942     Delta-E=       -0.000000000017 Rises=F Damp=F
 DIIS: error= 1.62D-07 at cycle  16 NSaved=  16.
 NSaved=16 IEnMin=16 EnMin= -649.167421166942     IErMin=16 ErrMin= 1.62D-07
 ErrMax= 1.62D-07  0.00D+00 EMaxC= 1.00D-01 BMatC= 5.61D-13 BMatP= 2.37D-12
 IDIUse=1 WtCom= 1.00D+00 WtEn= 0.00D+00
 Coeff-Com: -0.647D-06 0.908D-06 0.110D-05 0.300D-05-0.274D-04-0.525D-05
 Coeff-Com:  0.192D-04-0.353D-04 0.524D-04 0.151D-03-0.378D-05-0.516D-04
 Coeff-Com: -0.139D-01-0.107D-01 0.273D+00 0.752D+00
 Coeff:     -0.647D-06 0.908D-06 0.110D-05 0.300D-05-0.274D-04-0.525D-05
 Coeff:      0.192D-04-0.353D-04 0.524D-04 0.151D-03-0.378D-05-0.516D-04
 Coeff:     -0.139D-01-0.107D-01 0.273D+00 0.752D+00
 Gap=     0.026 Goal=   None    Shift=    0.000
 RMSDP=5.48D-08 MaxDP=1.60D-06 DE=-1.73D-11 OVMax= 2.80D-06

 Cycle  17  Pass 1  IDiag  1:
 E= -649.167421166947     Delta-E=       -0.000000000004 Rises=F Damp=F
 DIIS: error= 3.24D-08 at cycle  17 NSaved=  17.
 NSaved=17 IEnMin=17 EnMin= -649.167421166947     IErMin=17 ErrMin= 3.24D-08
 ErrMax= 3.24D-08  0.00D+00 EMaxC= 1.00D-01 BMatC= 2.02D-14 BMatP= 5.61D-13
 IDIUse=1 WtCom= 1.00D+00 WtEn= 0.00D+00
 Coeff-Com: -0.190D-06 0.233D-06 0.187D-06 0.124D-05-0.668D-05-0.172D-05
 Coeff-Com:  0.236D-06-0.568D-05 0.152D-04 0.267D-04 0.563D-04 0.410D-05
 Coeff-Com: -0.411D-02-0.516D-02 0.373D-01 0.163D+00 0.809D+00
 Coeff:     -0.190D-06 0.233D-06 0.187D-06 0.124D-05-0.668D-05-0.172D-05
 Coeff:      0.236D-06-0.568D-05 0.152D-04 0.267D-04 0.563D-04 0.410D-05
 Coeff:     -0.411D-02-0.516D-02 0.373D-01 0.163D+00 0.809D+00
 Gap=     0.026 Goal=   None    Shift=    0.000
 RMSDP=1.46D-08 MaxDP=5.14D-07 DE=-4.32D-12 OVMax= 9.54D-07

 Cycle  18  Pass 1  IDiag  1:
 E= -649.167421166951     Delta-E=       -0.000000000004 Rises=F Damp=F
 DIIS: error= 1.52D-08 at cycle  18 NSaved=  18.
 NSaved=18 IEnMin=18 EnMin= -649.167421166951     IErMin=18 ErrMin= 1.52D-08
 ErrMax= 1.52D-08  0.00D+00 EMaxC= 1.00D-01 BMatC= 4.39D-15 BMatP= 2.02D-14
 IDIUse=1 WtCom= 1.00D+00 WtEn= 0.00D+00
 Large coefficients: NSaved= 18 BigCof=    0.00 CofMax=   10.00 Det=-2.61D-15
 Inversion failed.  Reducing to 17 matrices.
 Large coefficients: NSaved= 17 BigCof=    0.00 CofMax=   10.00 Det=-2.68D-15
 Inversion failed.  Reducing to 16 matrices.
 Large coefficients: NSaved= 16 BigCof=    0.00 CofMax=   10.00 Det=-2.93D-15
 Inversion failed.  Reducing to 15 matrices.
 Coeff-Com:  0.164D-07 0.371D-06-0.161D-06 0.919D-06-0.959D-06 0.733D-06
 Coeff-Com: -0.886D-05-0.720D-05-0.119D-03 0.299D-03 0.481D-03-0.824D-02
 Coeff-Com: -0.199D-01 0.275D+00 0.752D+00
 Coeff:      0.164D-07 0.371D-06-0.161D-06 0.919D-06-0.959D-06 0.733D-06
 Coeff:     -0.886D-05-0.720D-05-0.119D-03 0.299D-03 0.481D-03-0.824D-02
 Coeff:     -0.199D-01 0.275D+00 0.752D+00
 Gap=     0.026 Goal=   None    Shift=    0.000
 RMSDP=5.66D-09 MaxDP=1.89D-07 DE=-3.87D-12 OVMax= 2.82D-07

 SCF Done:  E(RB3LYP) =  -649.167421167     A.U. after   18 cycles
            NFock= 18  Conv=0.57D-08     -V/T= 2.0028
 KE= 6.473362455830D+02 PE=-1.720691079581D+03 EE= 3.432555045982D+02
 Leave Link  502 at Sat Oct  7 02:11:33 2023, MaxMem=  1610612736 cpu:             177.1 elap:              54.7
 (Enter /home/sekinelabo/g16/l601.exe)
 Copying SCF densities to generalized density rwf, IOpCl= 0 IROHF=0.

 **********************************************************************

            Population analysis using the SCF Density.

 **********************************************************************

 Orbital symmetries:
       Occupied  (A) (A) (A) (A) (A) (A) (A) (A) (A) (A) (A) (A)
                 (A) (A) (A) (A) (A) (A) (A) (A) (A) (A)
       Virtual   (A) (A) (A) (A) (A) (A) (A) (A) (A) (A) (A) (A)
                 (A) (A) (A) (A) (A) (A) (A) (A) (A) (A) (A) (A)
                 (A) (A) (A) (A) (A) (A) (A) (A) (A) (A) (A) (A)
                 (A) (A) (A) (A) (A) (A) (A) (A) (A) (A) (A) (A)
                 (A) (A) (A) (A) (A) (A) (A) (A) (A) (A) (A) (A)
                 (A) (A) (A) (A) (A) (A) (A) (A) (A) (A) (A) (A)
                 (A) (A) (A) (A) (A) (A) (A) (A) (A) (A) (A) (A)
                 (A) (A) (A) (A) (A) (A) (A) (A) (A) (A) (A) (A)
                 (A) (A)
 The electronic state is 1-A.
 Alpha  occ. eigenvalues --  -38.46258 -38.46011 -38.45498 -38.45068  -2.21938
 Alpha  occ. eigenvalues --   -2.21712  -2.21367  -2.20931  -1.15614  -1.15614
 Alpha  occ. eigenvalues --   -1.15576  -1.15561  -1.15387  -1.15387  -1.15343
 Alpha  occ. eigenvalues --   -1.14963  -1.14960  -1.14528  -1.14519  -1.14352
 Alpha  occ. eigenvalues --   -0.14575  -0.11461
 Alpha virt. eigenvalues --   -0.08905  -0.04417  -0.03179  -0.03142  -0.01825
 Alpha virt. eigenvalues --   -0.01701  -0.01586  -0.00674  -0.00510   0.00069
 Alpha virt. eigenvalues --    0.00091   0.00993   0.01186   0.01290   0.01368
 Alpha virt. eigenvalues --    0.01402   0.01466   0.01904   0.01963   0.02026
 Alpha virt. eigenvalues --    0.02178   0.02448   0.02674   0.02800   0.03380
 Alpha virt. eigenvalues --    0.03563   0.03821   0.04182   0.04775   0.05702
 Alpha virt. eigenvalues --    0.07095   0.07261   0.07710   0.07794   0.08019
 Alpha virt. eigenvalues --    0.08116   0.08295   0.08438   0.08668   0.09767
 Alpha virt. eigenvalues --    0.10801   0.11199   0.12185   0.13357   0.13913
 Alpha virt. eigenvalues --    0.18476   0.28575   0.29210   0.30369   0.30440
 Alpha virt. eigenvalues --    0.32612   0.34265   0.34271   0.34384   0.34429
 Alpha virt. eigenvalues --    0.34730   0.34773   0.35806   0.36401   0.38944
 Alpha virt. eigenvalues --    0.39142   0.40396   0.41128   0.42251   0.42531
 Alpha virt. eigenvalues --    0.42601   0.42968   0.43162   0.43404   0.44885
 Alpha virt. eigenvalues --    0.45358   0.45615   0.45764   0.48367   0.51271
 Alpha virt. eigenvalues --    0.56827   0.59257   0.89975   2.00897   2.03444
 Alpha virt. eigenvalues --    2.08222   2.11647   4.42077   4.42207   4.42691
 Alpha virt. eigenvalues --    4.42753   4.43006   4.43162   4.44393   4.44528
 Alpha virt. eigenvalues --    4.47814   4.48455   4.50028   4.81646  96.20039
 Alpha virt. eigenvalues --   96.23121  96.30967  96.32783
          Condensed to atoms (all electrons):
               1          2          3          4
     1  Na  10.885056   0.145432   0.220825  -0.146465
     2  Na   0.145432  10.844134  -0.237653  -0.034861
     3  Na   0.220825  -0.237653  11.096118   0.175110
     4  Na  -0.146465  -0.034861   0.175110  10.929915
 Mulliken charges:
               1
     1  Na  -0.104848
     2  Na   0.282948
     3  Na  -0.254401
     4  Na   0.076301
 Sum of Mulliken charges =   0.00000
 Mulliken charges with hydrogens summed into heavy atoms:
               1
     1  Na  -0.104848
     2  Na   0.282948
     3  Na  -0.254401
     4  Na   0.076301
 Electronic spatial extent (au):  <R**2>=           2471.6439
 Charge=              0.0000 electrons
 Dipole moment (field-independent basis, Debye):
    X=              0.3648    Y=              0.5640    Z=              0.0208  Tot=              0.6720
 Quadrupole moment (field-independent basis, Debye-Ang):
   XX=            -21.0963   YY=            -42.4718   ZZ=            -44.6023
   XY=              0.8463   XZ=              0.4431   YZ=              0.1154
 Traceless Quadrupole moment (field-independent basis, Debye-Ang):
   XX=             14.9605   YY=             -6.4150   ZZ=             -8.5455
   XY=              0.8463   XZ=              0.4431   YZ=              0.1154
 Octapole moment (field-independent basis, Debye-Ang**2):
  XXX=              2.9499  YYY=             -0.0649  ZZZ=              0.1012  XYY=              6.5888
  XXY=             43.5011  XXZ=             -0.2978  XZZ=              3.1638  YZZ=             -0.3990
  YYZ=             -0.0693  XYZ=              1.5726
 Hexadecapole moment (field-independent basis, Debye-Ang**3):
 XXXX=          -2786.9192 YYYY=           -318.1018 ZZZZ=           -194.7127 XXXY=             31.6245
 XXXZ=             32.5673 YYYX=              6.0229 YYYZ=              0.9099 ZZZX=              1.9087
 ZZZY=              0.8322 XXYY=           -680.7154 XXZZ=           -704.7151 YYZZ=            -85.5872
 XXYZ=              1.0044 YYXZ=              0.0949 ZZXY=              1.4916
 N-N= 8.093190823326D+01 E-N=-1.720691079878D+03  KE= 6.473362455830D+02
 No NMR shielding tensors so no spin-rotation constants.
 Leave Link  601 at Sat Oct  7 02:11:36 2023, MaxMem=  1610612736 cpu:               8.0 elap:               2.5
 (Enter /home/sekinelabo/g16/l701.exe)
 ... and contract with generalized density number  0.
 Compute integral first derivatives.
 Leave Link  701 at Sat Oct  7 02:11:38 2023, MaxMem=  1610612736 cpu:               6.5 elap:               2.0
 (Enter /home/sekinelabo/g16/l702.exe)
 L702 exits ... SP integral derivatives will be done elsewhere.
 Leave Link  702 at Sat Oct  7 02:11:38 2023, MaxMem=  1610612736 cpu:               0.6 elap:               0.2
 (Enter /home/sekinelabo/g16/l703.exe)
 Integral derivatives from FoFJK, PRISM(SPDF).
 Compute integral first derivatives, UseDBF=F ICtDFT=           0.
 Calling FoFJK, ICntrl=      2127 FMM=F ISym2X=0 I1Cent= 0 IOpClX= 0 NMat=1 NMatS=1 NMatT=0.
 FoFJK:  IHMeth= 1 ICntrl=    2127 DoSepK=F KAlg= 0 I1Cent=           0 FoldK=F
 IRaf=         0 NMat=       1 IRICut=       1 DoRegI=T DoRafI=F ISym2E= 0 IDoP0=0 IntGTp=1.
 FoFCou: FMM=F IPFlag=           0 FMFlag=      100000 FMFlg1=         800
         NFxFlg=           0 DoJE=F BraDBF=F KetDBF=F FulRan=T
         wScrn=  0.000000 ICntrl=      2127 IOpCl=  0 I1Cent=           0 NGrid=           0
         NMat0=    1 NMatS0=      1 NMatT0=    0 NMatD0=    1 NMtDS0=    0 NMtDT0=    0
 Symmetry not used in FoFCou.
 Leave Link  703 at Sat Oct  7 02:11:42 2023, MaxMem=  1610612736 cpu:              12.1 elap:               3.7
 (Enter /home/sekinelabo/g16/l716.exe)
 Dipole        = 1.43515957D-01 2.21882019D-01 8.18757304D-03
 ***** Axes restored to original set *****
 -------------------------------------------------------------------
 Center     Atomic                   Forces (Hartrees/Bohr)
 Number     Number              X              Y              Z
 -------------------------------------------------------------------
      1       11          -0.002466749   -0.000109315   -0.026067521
      2       11           0.002612020    0.000046704    0.004656812
      3       11          -0.000970269   -0.001628941    0.026479486
      4       11           0.000824999    0.001691552   -0.005068777
 -------------------------------------------------------------------
 Cartesian Forces:  Max     0.026479486 RMS     0.010985277
 Z-matrix is all fixed cartesians, so copy forces.
 Force constants in Cartesian coordinates: 
                1             2             3             4             5 
      1  0.298136D-01
      2  0.000000D+00  0.000000D+00
      3 -0.601842D-03  0.000000D+00  0.102119D+00
      4 -0.124081D-01  0.000000D+00 -0.291583D-02  0.619961D-02
      5  0.000000D+00  0.000000D+00  0.000000D+00  0.000000D+00  0.000000D+00
      6  0.601842D-03  0.000000D+00 -0.969376D-02  0.291583D-02  0.000000D+00
      7 -0.174055D-01  0.000000D+00  0.351767D-02  0.620845D-02  0.000000D+00
      8  0.000000D+00  0.000000D+00  0.000000D+00  0.000000D+00  0.000000D+00
      9  0.000000D+00  0.000000D+00 -0.924249D-01  0.000000D+00  0.000000D+00
     10  0.000000D+00  0.000000D+00  0.000000D+00  0.000000D+00  0.000000D+00
     11  0.000000D+00  0.000000D+00  0.000000D+00  0.000000D+00  0.000000D+00
     12  0.000000D+00  0.000000D+00  0.000000D+00  0.000000D+00  0.000000D+00
                6             7             8             9            10 
      6  0.969376D-02
      7 -0.351767D-02  0.111971D-01
      8  0.000000D+00  0.000000D+00  0.000000D+00
      9  0.000000D+00  0.000000D+00  0.000000D+00  0.924249D-01
     10  0.000000D+00  0.000000D+00  0.000000D+00  0.000000D+00  0.100000D+01
     11  0.000000D+00  0.000000D+00  0.000000D+00  0.000000D+00  0.000000D+00
     12  0.000000D+00  0.000000D+00  0.000000D+00  0.000000D+00  0.000000D+00
               11            12 
     11  0.100000D+01
     12  0.000000D+00  0.100000D+01
 Leave Link  716 at Sat Oct  7 02:11:42 2023, MaxMem=  1610612736 cpu:               0.7 elap:               0.2
 (Enter /home/sekinelabo/g16/l103.exe)

 GradGradGradGradGradGradGradGradGradGradGradGradGradGradGradGradGradGrad
 Berny optimization.
 Search for a local minimum.
 Step number   1 out of a maximum of    2
 All quantities printed in internal units (Hartrees-Bohrs-Radians)
 Second derivative matrix not updated -- first step.
 The second derivative matrix:
                          X1        Y1        Z1        X2        Y2
           X1           0.02981
           Y1           0.00000   0.00000
           Z1          -0.00060   0.00000   0.10212
           X2          -0.01241  -0.00000  -0.00292   0.00620
           Y2           0.00000  -0.00000  -0.00000  -0.00000   0.00000
           Z2           0.00060   0.00000  -0.00969   0.00292   0.00000
           X3          -0.01741  -0.00000   0.00352   0.00621  -0.00000
           Y3           0.00000  -0.00000   0.00000  -0.00000  -0.00000
           Z3           0.00000  -0.00000  -0.09242   0.00000   0.00000
           X4           0.00000   0.00000   0.00000   0.00000   0.00000
           Y4           0.00000   0.00000   0.00000   0.00000   0.00000
           Z4           0.00000   0.00000   0.00000   0.00000   0.00000
                          Z2        X3        Y3        Z3        X4
           Z2           0.00969
           X3          -0.00352   0.01120
           Y3           0.00000  -0.00000   0.00000
           Z3          -0.00000  -0.00000   0.00000   0.09242
           X4           0.00000   0.00000   0.00000   0.00000   1.00000
           Y4           0.00000   0.00000   0.00000   0.00000   0.00000
           Z4           0.00000   0.00000   0.00000   0.00000  -0.00000
                          Y4        Z4
           Y4           1.00000
           Z4           0.00000   1.00000
 ITU=  0
     Eigenvalues ---    0.01606   0.04214   0.04522   0.19017   0.24701
     Eigenvalues ---    0.75000
 Angle between quadratic step and forces=  36.60 degrees.
 Linear search not attempted -- first point.
 B after Tr=     0.000000   -0.000000    0.000000
         Rot=    1.000000    0.000000   -0.000000    0.000000 Ang=   0.00 deg.
 Variable       Old X    -DE/DX   Delta X   Delta X   Delta X     New X
                                 (Linear)    (Quad)   (Total)
    X1        0.00000  -0.00247   0.00000  -0.05637  -0.05637  -0.05637
    Y1        0.00000  -0.00011   0.00000   0.01061   0.01061   0.01061
    Z1       -0.00000  -0.02607   0.00000  -0.19473  -0.19473  -0.19473
    X2       -3.65509   0.00261   0.00000   0.06670   0.06670  -3.58839
    Y2        0.00000   0.00005   0.00000  -0.00097  -0.00097  -0.00097
    Z2       -6.45099   0.00466   0.00000   0.12913   0.12913  -6.32187
    X3        0.00000  -0.00097   0.00000  -0.01207  -0.01207  -0.01207
    Y3        0.00000  -0.00163   0.00000  -0.01631  -0.01631  -0.01631
    Z3        4.72517   0.02648   0.00000   0.07146   0.07146   4.79663
    X4       -1.25687   0.00082   0.00000   0.00174   0.00174  -1.25513
    Y4       -2.78450   0.00169   0.00000   0.00667   0.00667  -2.77784
    Z4       13.07324  -0.00507   0.00000  -0.00586  -0.00586  13.06738
         Item               Value     Threshold  Converged?
 Maximum Force            0.026479     0.000450     NO 
 RMS     Force            0.010985     0.000300     NO 
 Maximum Displacement     0.194728     0.001800     NO 
 RMS     Displacement     0.075240     0.001200     NO 
 Predicted change in Energy=-3.981171D-03
 GradGradGradGradGradGradGradGradGradGradGradGradGradGradGradGradGradGrad

 Leave Link  103 at Sat Oct  7 02:11:43 2023, MaxMem=  1610612736 cpu:               3.1 elap:               1.0
 (Enter /home/sekinelabo/g16/l9999.exe)
 1\1\GINC-SEKINELABO-XA7R-R37\Force\RB3LYP\6-311+G(d)\Na4\SEKINELABO\07
 -Oct-2023\0\\#p B3LYP/6-311+g(d) force\\\0,1\Na,0.,0.,0.\Na,-1.9341898
 8,0.,-3.4137194326\Na,0.,0.,2.5004546806\Na,-0.6651089379,-1.473494994
 9,6.9180586975\\Version=ES64L-G16RevB.01\State=1-A\HF=-649.1674212\RMS
 D=5.662e-09\RMSF=1.099e-02\Dipole=-0.2178411,-0.0697955,-0.1325493\Qua
 drupole=-4.6729573,-5.7789997,10.451957,0.219234,2.4117279,-2.4131249\
 PG=C01 [X(Na4)]\\@


 THERE IS AN OLD, OLD RECIPE IN MAINE FOR STEWING COOT. PLACE THE
 BIRD IN A KETTLE OF WATER WITH A RED BUILDING BRICK FREE OF MORTAR AND
 BLEMISHES. PARBOIL THE COOT AND BRICK TOGETHER FOR THREE HOURS.
 POUR OFF THE WATER, REFILL THE KETTLE, AND AGAIN PARBOIL FOR THREE HOURS.
 ONCE AGAIN POUR OFF THE WATER, FOR THE LAST TIME ADD FRESH WATER,
 AND LET THE COOT AND BRICK SIMMER TOGETHER OVERNIGHT. IN THE MORNING,
 THROW AWAY THE COOT AND EAT THE BRICK.
 Job cpu time:       0 days  0 hours  4 minutes 10.9 seconds.
 Elapsed time:       0 days  0 hours  1 minutes 20.5 seconds.
 File lengths (MBytes):  RWF=     10 Int=      0 D2E=      0 Chk=      2 Scr=      1
 Normal termination of Gaussian 16 at Sat Oct  7 02:11:43 2023.
