0.000000000000000000e+00 0.000000000000000000e+00 0.000000000000000000e+00 0.000000000000000000e+00 0.000000000000000000e+00 2.277140999999999860e+00 0.000000000000000000e+00 0.000000000000000000e+00 4.511359999999999815e+00 0.000000000000000000e+00 0.000000000000000000e+00 9.039049999999999585e+00
0.000000000000000000e+00 0.000000000000000000e+00 0.000000000000000000e+00 0.000000000000000000e+00 0.000000000000000000e+00 4.736715000000000231e+00 0.000000000000000000e+00 0.000000000000000000e+00 8.398341999999999530e+00 0.000000000000000000e+00 0.000000000000000000e+00 1.341934799999999939e+01
0.000000000000000000e+00 0.000000000000000000e+00 0.000000000000000000e+00 0.000000000000000000e+00 0.000000000000000000e+00 4.299731000000000414e+00 0.000000000000000000e+00 0.000000000000000000e+00 7.824263000000000190e+00 0.000000000000000000e+00 0.000000000000000000e+00 1.063782100000000064e+01
