-1.766394775577737892e+04
-1.766473415134304014e+04
-1.766535111572925962e+04
