-0.000000000000000000e+00 -0.000000000000000000e+00 -1.766811073529420906e+00 -0.000000000000000000e+00 -0.000000000000000000e+00 -1.755720619126464321e-01 -0.000000000000000000e+00 -0.000000000000000000e+00 2.297476216939204452e+00 -0.000000000000000000e+00 -0.000000000000000000e+00 -3.550930300750698709e-01
-0.000000000000000000e+00 -0.000000000000000000e+00 2.841249719523851192e-01 -0.000000000000000000e+00 -0.000000000000000000e+00 -1.154117396659334605e-01 -0.000000000000000000e+00 -0.000000000000000000e+00 9.140241640676452506e-02 -0.000000000000000000e+00 -0.000000000000000000e+00 -2.601156486932161838e-01
-0.000000000000000000e+00 -0.000000000000000000e+00 3.725798754514066391e-01 -0.000000000000000000e+00 -0.000000000000000000e+00 -3.701120275890827926e-01 -0.000000000000000000e+00 -0.000000000000000000e+00 -3.819737615821168220e-01 -0.000000000000000000e+00 -0.000000000000000000e+00 3.795059137197929755e-01
