 Entering Gaussian System, Link 0=g16
 Initial command:
 /home/sekinelabo/g16/l1.exe "/home/sekinelabo/g16temp/Gau-934224.inp" -scrdir="/home/sekinelabo/g16temp/"
 Entering Link 1 = /home/sekinelabo/g16/l1.exe PID=    934242.
  
 Copyright (c) 1988-2017, Gaussian, Inc.  All Rights Reserved.
  
 This is part of the Gaussian(R) 16 program.  It is based on
 the Gaussian(R) 09 system (copyright 2009, Gaussian, Inc.),
 the Gaussian(R) 03 system (copyright 2003, Gaussian, Inc.),
 the Gaussian(R) 98 system (copyright 1998, Gaussian, Inc.),
 the Gaussian(R) 94 system (copyright 1995, Gaussian, Inc.),
 the Gaussian 92(TM) system (copyright 1992, Gaussian, Inc.),
 the Gaussian 90(TM) system (copyright 1990, Gaussian, Inc.),
 the Gaussian 88(TM) system (copyright 1988, Gaussian, Inc.),
 the Gaussian 86(TM) system (copyright 1986, Carnegie Mellon
 University), and the Gaussian 82(TM) system (copyright 1983,
 Carnegie Mellon University). Gaussian is a federally registered
 trademark of Gaussian, Inc.
  
 This software contains proprietary and confidential information,
 including trade secrets, belonging to Gaussian, Inc.
  
 This software is provided under written license and may be
 used, copied, transmitted, or stored only in accord with that
 written license.
  
 The following legend is applicable only to US Government
 contracts under FAR:
  
                    RESTRICTED RIGHTS LEGEND
  
 Use, reproduction and disclosure by the US Government is
 subject to restrictions as set forth in subparagraphs (a)
 and (c) of the Commercial Computer Software - Restricted
 Rights clause in FAR 52.227-19.
  
 Gaussian, Inc.
 340 Quinnipiac St., Bldg. 40, Wallingford CT 06492
  
  
 ---------------------------------------------------------------
 Warning -- This program may not be used in any manner that
 competes with the business of Gaussian, Inc. or will provide
 assistance to any competitor of Gaussian, Inc.  The licensee
 of this program is prohibited from giving any competitor of
 Gaussian, Inc. access to this program.  By using this program,
 the user acknowledges that Gaussian, Inc. is engaged in the
 business of creating and licensing software in the field of
 computational chemistry and represents and warrants to the
 licensee that it is not a competitor of Gaussian, Inc. and that
 it will not use this program in any manner prohibited above.
 ---------------------------------------------------------------
  

 Cite this work as:
 Gaussian 16, Revision B.01,
 M. J. Frisch, G. W. Trucks, H. B. Schlegel, G. E. Scuseria, 
 M. A. Robb, J. R. Cheeseman, G. Scalmani, V. Barone, 
 G. A. Petersson, H. Nakatsuji, X. Li, M. Caricato, A. V. Marenich, 
 J. Bloino, B. G. Janesko, R. Gomperts, B. Mennucci, H. P. Hratchian, 
 J. V. Ortiz, A. F. Izmaylov, J. L. Sonnenberg, D. Williams-Young, 
 F. Ding, F. Lipparini, F. Egidi, J. Goings, B. Peng, A. Petrone, 
 T. Henderson, D. Ranasinghe, V. G. Zakrzewski, J. Gao, N. Rega, 
 G. Zheng, W. Liang, M. Hada, M. Ehara, K. Toyota, R. Fukuda, 
 J. Hasegawa, M. Ishida, T. Nakajima, Y. Honda, O. Kitao, H. Nakai, 
 T. Vreven, K. Throssell, J. A. Montgomery, Jr., J. E. Peralta, 
 F. Ogliaro, M. J. Bearpark, J. J. Heyd, E. N. Brothers, K. N. Kudin, 
 V. N. Staroverov, T. A. Keith, R. Kobayashi, J. Normand, 
 K. Raghavachari, A. P. Rendell, J. C. Burant, S. S. Iyengar, 
 J. Tomasi, M. Cossi, J. M. Millam, M. Klene, C. Adamo, R. Cammi, 
 J. W. Ochterski, R. L. Martin, K. Morokuma, O. Farkas, 
 J. B. Foresman, and D. J. Fox, Gaussian, Inc., Wallingford CT, 2016.
 
 ******************************************
 Gaussian 16:  ES64L-G16RevB.01 20-Dec-2017
                21-Nov-2023 
 ******************************************
 %nprocshared=14
 Will use up to   14 processors via shared memory.
 -------------------------
 #P B3LYP/6-311+g(d) force
 -------------------------
 1/10=7,30=1,38=1/1,3;
 2/12=2,17=6,18=5,40=1/2;
 3/5=4,6=6,7=11,11=2,25=1,30=1,71=1,74=-5/1,2,3;
 4//1;
 5/5=2,38=5/2;
 6/7=2,8=2,9=2,10=2,28=1/1;
 7/29=1/1,2,3,16;
 1/10=7,30=1/3;
 99//99;
 Leave Link    1 at Tue Nov 21 11:40:17 2023, MaxMem=           0 cpu:               0.5 elap:               0.4
 (Enter /home/sekinelabo/g16/l101.exe)
 -----
 DPGEN
 -----
 Symbolic Z-matrix:
 Charge =  0 Multiplicity = 2
 Na                    9.29182   0.30216   1.81281 
 Na                    11.072    2.1439    0.16862 
 Na                    9.13158   4.63415   0.13154 
 Na                    7.02995   4.69299   2.33093 
 Na                    4.86515   2.19328   1.93699 
 Na                    2.46584   2.05965   0.20518 
 Na                    0.45267   2.12582   2.3816 
 
 ITRead=  0  0  0  0  0  0  0
 MicOpt= -1 -1 -1 -1 -1 -1 -1
 NAtoms=      7 NQM=        7 NQMF=       0 NMMI=      0 NMMIF=      0
                NMic=       0 NMicF=      0.
                    Isotopes and Nuclear Properties:
 (Nuclear quadrupole moments (NQMom) in fm**2, nuclear magnetic moments (NMagM)
  in nuclear magnetons)

  Atom         1           2           3           4           5           6           7
 IAtWgt=          23          23          23          23          23          23          23
 AtmWgt=  22.9897697  22.9897697  22.9897697  22.9897697  22.9897697  22.9897697  22.9897697
 NucSpn=           3           3           3           3           3           3           3
 AtZEff=  -0.0000000  -0.0000000  -0.0000000  -0.0000000  -0.0000000  -0.0000000  -0.0000000
 NQMom=   10.4000000  10.4000000  10.4000000  10.4000000  10.4000000  10.4000000  10.4000000
 NMagM=    2.2175200   2.2175200   2.2175200   2.2175200   2.2175200   2.2175200   2.2175200
 AtZNuc=  11.0000000  11.0000000  11.0000000  11.0000000  11.0000000  11.0000000  11.0000000
 Leave Link  101 at Tue Nov 21 11:40:20 2023, MaxMem=   104857600 cpu:               2.5 elap:               2.6
 (Enter /home/sekinelabo/g16/l103.exe)

 GradGradGradGradGradGradGradGradGradGradGradGradGradGradGradGradGradGrad
 Berny optimization.
 Initialization pass.
 Trust Radius=3.00D-01 FncErr=1.00D-07 GrdErr=1.00D-07 EigMax=2.50D+02 EigMin=1.00D-04
 Number of steps in this run=      2 maximum allowed number of steps=      2.
 GradGradGradGradGradGradGradGradGradGradGradGradGradGradGradGradGradGrad

 Leave Link  103 at Tue Nov 21 11:40:20 2023, MaxMem=   104857600 cpu:               0.5 elap:               0.4
 (Enter /home/sekinelabo/g16/l202.exe)
                          Input orientation:                          
 ---------------------------------------------------------------------
 Center     Atomic      Atomic             Coordinates (Angstroms)
 Number     Number       Type             X           Y           Z
 ---------------------------------------------------------------------
      1         11           0        9.291820    0.302159    1.812810
      2         11           0       11.072000    2.143900    0.168620
      3         11           0        9.131580    4.634150    0.131543
      4         11           0        7.029950    4.692990    2.330930
      5         11           0        4.865150    2.193280    1.936990
      6         11           0        2.465840    2.059650    0.205179
      7         11           0        0.452670    2.125820    2.381600
 ---------------------------------------------------------------------
                    Distance matrix (angstroms):
                    1          2          3          4          5
     1  Na   0.000000
     2  Na   3.043750   0.000000
     3  Na   4.649568   3.157206   0.000000
     4  Na   4.966276   5.245151   3.042633   0.000000
     5  Na   4.815305   6.454034   5.236402   3.330180   0.000000
     6  Na   7.229610   8.606650   7.146017   5.681936   2.962046
     7  Na   9.043220  10.847478   9.310100   7.060704   4.435336
                    6          7
     6  Na   0.000000
     7  Na   2.965475   0.000000
 Stoichiometry    Na7(2)
 Framework group  C1[X(Na7)]
 Deg. of freedom    15
 Full point group                 C1      NOp   1
 Largest Abelian subgroup         C1      NOp   1
 Largest concise Abelian subgroup C1      NOp   1
                         Standard orientation:                         
 ---------------------------------------------------------------------
 Center     Atomic      Atomic             Coordinates (Angstroms)
 Number     Number       Type             X           Y           Z
 ---------------------------------------------------------------------
      1         11           0        2.771217    2.483961   -0.674392
      2         11           0        4.808552    0.637656    0.631300
      3         11           0        3.006603   -1.954113    0.691835
      4         11           0        0.680810   -1.981431   -1.269683
      5         11           0       -1.545638    0.360725   -0.465115
      6         11           0       -3.743226    0.242213    1.517378
      7         11           0       -5.978318    0.210990   -0.431322
 ---------------------------------------------------------------------
 Rotational constants (GHZ):           1.0880688           0.2240971           0.2054454
 Leave Link  202 at Tue Nov 21 11:40:21 2023, MaxMem=   104857600 cpu:               0.8 elap:               0.9
 (Enter /home/sekinelabo/g16/l301.exe)
 Standard basis: 6-311+G(d) (5D, 7F)
 Ernie: Thresh=  0.10000D-02 Tol=  0.10000D-05 Strict=F.
 There are   217 symmetry adapted cartesian basis functions of A   symmetry.
 There are   210 symmetry adapted basis functions of A   symmetry.
   210 basis functions,   350 primitive gaussians,   217 cartesian basis functions
    39 alpha electrons       38 beta electrons
       nuclear repulsion energy       279.0077629735 Hartrees.
 IExCor=  402 DFT=T Ex+Corr=B3LYP ExCW=0 ScaHFX=  0.200000
 ScaDFX=  0.800000  0.720000  1.000000  0.810000 ScalE2=  1.000000  1.000000
 IRadAn=      5 IRanWt=     -1 IRanGd=            0 ICorTp=0 IEmpDi=  4
 NAtoms=    7 NActive=    7 NUniq=    7 SFac= 1.00D+00 NAtFMM=   60 NAOKFM=F Big=F
 Integral buffers will be    131072 words long.
 Raffenetti 2 integral format.
 Two-electron integral symmetry is turned on.
 Leave Link  301 at Tue Nov 21 11:40:22 2023, MaxMem=   104857600 cpu:               0.7 elap:               0.8
 (Enter /home/sekinelabo/g16/l302.exe)
 NPDir=0 NMtPBC=     1 NCelOv=     1 NCel=       1 NClECP=     1 NCelD=      1
         NCelK=      1 NCelE2=     1 NClLst=     1 CellRange=     0.0.
 One-electron integrals computed using PRISM.
 One-electron integral symmetry used in STVInt
 NBasis=   210 RedAO= T EigKep=  5.57D-06  NBF=   210
 NBsUse=   210 1.00D-06 EigRej= -1.00D+00 NBFU=   210
 Precomputing XC quadrature grid using
 IXCGrd= 4 IRadAn=           5 IRanWt=          -1 IRanGd=           0 AccXCQ= 0.00D+00.
 Generated NRdTot=       0 NPtTot=           0 NUsed=           0 NTot=          32
 NSgBfM=   202   201   201   202   202 MxSgAt=     7 MxSgA2=     7.
 Leave Link  302 at Tue Nov 21 11:40:55 2023, MaxMem=   104857600 cpu:              30.5 elap:              33.1
 (Enter /home/sekinelabo/g16/l303.exe)
 DipDrv:  MaxL=1.
 Leave Link  303 at Tue Nov 21 11:40:58 2023, MaxMem=   104857600 cpu:               2.4 elap:               2.5
 (Enter /home/sekinelabo/g16/l401.exe)
 ExpMin= 7.60D-03 ExpMax= 3.62D+04 ExpMxC= 1.21D+03 IAcc=3 IRadAn=         5 AccDes= 0.00D+00
 Harris functional with IExCor=  402 and IRadAn=       5 diagonalized for initial guess.
 HarFok:  IExCor=  402 AccDes= 0.00D+00 IRadAn=         5 IDoV= 1 UseB2=F ITyADJ=14
 ICtDFT=  3500011 ScaDFX=  1.000000  1.000000  1.000000  1.000000
 FoFCou: FMM=F IPFlag=           0 FMFlag=      100000 FMFlg1=           0
         NFxFlg=           0 DoJE=T BraDBF=F KetDBF=T FulRan=T
         wScrn=  0.000000 ICntrl=       500 IOpCl=  0 I1Cent=   200000004 NGrid=           0
         NMat0=    1 NMatS0=      1 NMatT0=    0 NMatD0=    1 NMtDS0=    0 NMtDT0=    0
 Petite list used in FoFCou.
 Harris En= -1135.87548597376    
 JPrj=0 DoOrth=F DoCkMO=F.
 Initial guess <Sx>= 0.0000 <Sy>= 0.0000 <Sz>= 0.5000 <S**2>= 0.7500 S= 0.5000
 Leave Link  401 at Tue Nov 21 11:41:17 2023, MaxMem=   104857600 cpu:              17.4 elap:              18.9
 (Enter /home/sekinelabo/g16/l502.exe)
 Integral symmetry usage will be decided dynamically.
 UHF open shell SCF:
 Using DIIS extrapolation, IDIIS=  1040.
 NGot=   104857600 LenX=   104758426 LenY=   104710896
 Requested convergence on RMS density matrix=1.00D-08 within 128 cycles.
 Requested convergence on MAX density matrix=1.00D-06.
 Requested convergence on             energy=1.00D-06.
 No special actions if energy rises.
 Fock matrices will be formed incrementally for  20 cycles.

 Cycle   1  Pass 1  IDiag  1:
 FoFJK:  IHMeth= 1 ICntrl=       0 DoSepK=F KAlg= 0 I1Cent=           0 FoldK=F
 IRaf= 840000000 NMat=       1 IRICut=       1 DoRegI=T DoRafI=F ISym2E= 0 IDoP0=0 IntGTp=1.
 FoFCou: FMM=F IPFlag=           0 FMFlag=      100000 FMFlg1=           0
         NFxFlg=           0 DoJE=F BraDBF=F KetDBF=F FulRan=T
         wScrn=  0.000000 ICntrl=         0 IOpCl=  1 I1Cent=           0 NGrid=           0
         NMat0=    1 NMatS0=      1 NMatT0=    0 NMatD0=    1 NMtDS0=    0 NMtDT0=    0
 Symmetry not used in FoFCou.
 E= -1136.07591651806    
 DIIS: error= 9.21D-03 at cycle   1 NSaved=   1.
 NSaved= 1 IEnMin= 1 EnMin= -1136.07591651806     IErMin= 1 ErrMin= 9.21D-03
 ErrMax= 9.21D-03  0.00D+00 EMaxC= 1.00D-01 BMatC= 1.84D-01 BMatP= 1.84D-01
 IDIUse=3 WtCom= 9.08D-01 WtEn= 9.21D-02
 Coeff-Com:  0.100D+01
 Coeff-En:   0.100D+01
 Coeff:      0.100D+01
 Gap=     0.031 Goal=   None    Shift=    0.000
 Gap=     0.031 Goal=   None    Shift=    0.000
 GapD=    0.031 DampG=0.250 DampE=1.000 DampFc=0.2500 IDamp=-1.
 Damping current iteration by 2.50D-01
 RMSDP=5.51D-03 MaxDP=3.08D-01              OVMax= 3.19D-01

 Cycle   2  Pass 1  IDiag  1:
 RMSU=  1.24D-03    CP:  9.75D-01
 E= -1136.08476808423     Delta-E=       -0.008851566173 Rises=F Damp=T
 DIIS: error= 6.35D-03 at cycle   2 NSaved=   2.
 NSaved= 2 IEnMin= 2 EnMin= -1136.08476808423     IErMin= 2 ErrMin= 6.35D-03
 ErrMax= 6.35D-03  0.00D+00 EMaxC= 1.00D-01 BMatC= 7.10D-02 BMatP= 1.84D-01
 IDIUse=3 WtCom= 9.37D-01 WtEn= 6.35D-02
 Coeff-Com: -0.128D+01 0.228D+01
 Coeff-En:   0.000D+00 0.100D+01
 Coeff:     -0.120D+01 0.220D+01
 Gap=     0.056 Goal=   None    Shift=    0.000
 Gap=     0.042 Goal=   None    Shift=    0.000
 RMSDP=4.33D-03 MaxDP=4.28D-01 DE=-8.85D-03 OVMax= 3.63D-01

 Cycle   3  Pass 1  IDiag  1:
 RMSU=  2.81D-03    CP:  8.81D-01  2.95D+00
 E= -1136.09549881207     Delta-E=       -0.010730727839 Rises=F Damp=F
 DIIS: error= 2.82D-03 at cycle   3 NSaved=   3.
 NSaved= 3 IEnMin= 3 EnMin= -1136.09549881207     IErMin= 3 ErrMin= 2.82D-03
 ErrMax= 2.82D-03  0.00D+00 EMaxC= 1.00D-01 BMatC= 4.94D-03 BMatP= 7.10D-02
 IDIUse=3 WtCom= 9.72D-01 WtEn= 2.82D-02
 Coeff-Com: -0.361D+00 0.613D+00 0.748D+00
 Coeff-En:   0.000D+00 0.000D+00 0.100D+01
 Coeff:     -0.351D+00 0.596D+00 0.755D+00
 Gap=     0.042 Goal=   None    Shift=    0.000
 Gap=     0.040 Goal=   None    Shift=    0.000
 RMSDP=2.33D-03 MaxDP=1.54D-01 DE=-1.07D-02 OVMax= 2.84D-01

 Cycle   4  Pass 1  IDiag  1:
 RMSU=  1.74D-03    CP:  8.82D-01  3.00D+00  4.66D-01
 E= -1136.09178658426     Delta-E=        0.003712227808 Rises=F Damp=F
 DIIS: error= 3.63D-03 at cycle   4 NSaved=   4.
 NSaved= 4 IEnMin= 3 EnMin= -1136.09549881207     IErMin= 3 ErrMin= 2.82D-03
 ErrMax= 3.63D-03  0.00D+00 EMaxC= 1.00D-01 BMatC= 7.53D-03 BMatP= 4.94D-03
 IDIUse=3 WtCom= 1.42D-01 WtEn= 8.58D-01
 Coeff-Com: -0.380D-01 0.564D-01 0.550D+00 0.431D+00
 Coeff-En:   0.000D+00 0.000D+00 0.573D+00 0.427D+00
 Coeff:     -0.541D-02 0.804D-02 0.569D+00 0.428D+00
 Gap=     0.042 Goal=   None    Shift=    0.000
 Gap=     0.037 Goal=   None    Shift=    0.000
 RMSDP=1.26D-03 MaxDP=7.49D-02 DE= 3.71D-03 OVMax= 1.71D-01

 Cycle   5  Pass 1  IDiag  1:
 RMSU=  3.56D-04    CP:  8.80D-01  3.00D+00  7.77D-01  5.23D-01
 E= -1136.10358647204     Delta-E=       -0.011799887777 Rises=F Damp=F
 DIIS: error= 2.89D-04 at cycle   5 NSaved=   5.
 NSaved= 5 IEnMin= 5 EnMin= -1136.10358647204     IErMin= 5 ErrMin= 2.89D-04
 ErrMax= 2.89D-04  0.00D+00 EMaxC= 1.00D-01 BMatC= 7.78D-05 BMatP= 4.94D-03
 IDIUse=3 WtCom= 9.97D-01 WtEn= 2.89D-03
 Coeff-Com:  0.889D-02-0.125D-01 0.122D+00 0.543D-01 0.828D+00
 Coeff-En:   0.000D+00 0.000D+00 0.000D+00 0.000D+00 0.100D+01
 Coeff:      0.886D-02-0.125D-01 0.121D+00 0.541D-01 0.828D+00
 Gap=     0.040 Goal=   None    Shift=    0.000
 Gap=     0.036 Goal=   None    Shift=    0.000
 RMSDP=3.27D-04 MaxDP=2.04D-02 DE=-1.18D-02 OVMax= 2.12D-02

 Cycle   6  Pass 1  IDiag  1:
 RMSU=  2.99D-04    CP:  8.80D-01  3.00D+00  8.16D-01  5.68D-01  1.06D+00
 E= -1136.10367265731     Delta-E=       -0.000086185270 Rises=F Damp=F
 DIIS: error= 2.58D-04 at cycle   6 NSaved=   6.
 NSaved= 6 IEnMin= 6 EnMin= -1136.10367265731     IErMin= 6 ErrMin= 2.58D-04
 ErrMax= 2.58D-04  0.00D+00 EMaxC= 1.00D-01 BMatC= 4.17D-05 BMatP= 7.78D-05
 IDIUse=3 WtCom= 9.97D-01 WtEn= 2.58D-03
 Coeff-Com:  0.821D-02-0.116D-01-0.165D-01-0.460D-01 0.476D+00 0.589D+00
 Coeff-En:   0.000D+00 0.000D+00 0.000D+00 0.000D+00 0.000D+00 0.100D+01
 Coeff:      0.819D-02-0.116D-01-0.164D-01-0.459D-01 0.475D+00 0.590D+00
 Gap=     0.041 Goal=   None    Shift=    0.000
 Gap=     0.037 Goal=   None    Shift=    0.000
 RMSDP=1.49D-04 MaxDP=6.53D-03 DE=-8.62D-05 OVMax= 9.85D-03

 Cycle   7  Pass 1  IDiag  1:
 RMSU=  1.14D-04    CP:  8.80D-01  3.00D+00  8.12D-01  5.59D-01  1.32D+00
                    CP:  9.99D-01
 E= -1136.10373407440     Delta-E=       -0.000061417091 Rises=F Damp=F
 DIIS: error= 6.70D-05 at cycle   7 NSaved=   7.
 NSaved= 7 IEnMin= 7 EnMin= -1136.10373407440     IErMin= 7 ErrMin= 6.70D-05
 ErrMax= 6.70D-05  0.00D+00 EMaxC= 1.00D-01 BMatC= 2.87D-06 BMatP= 4.17D-05
 IDIUse=1 WtCom= 1.00D+00 WtEn= 0.00D+00
 Coeff-Com:  0.340D-03-0.455D-03-0.166D-01-0.204D-01 0.260D-01 0.154D+00
 Coeff-Com:  0.857D+00
 Coeff:      0.340D-03-0.455D-03-0.166D-01-0.204D-01 0.260D-01 0.154D+00
 Coeff:      0.857D+00
 Gap=     0.041 Goal=   None    Shift=    0.000
 Gap=     0.037 Goal=   None    Shift=    0.000
 RMSDP=8.05D-05 MaxDP=4.13D-03 DE=-6.14D-05 OVMax= 8.68D-03

 Cycle   8  Pass 1  IDiag  1:
 RMSU=  4.96D-05    CP:  8.80D-01  3.00D+00  8.16D-01  5.63D-01  1.38D+00
                    CP:  1.16D+00  1.29D+00
 E= -1136.10374915866     Delta-E=       -0.000015084255 Rises=F Damp=F
 DIIS: error= 3.72D-05 at cycle   8 NSaved=   8.
 NSaved= 8 IEnMin= 8 EnMin= -1136.10374915866     IErMin= 8 ErrMin= 3.72D-05
 ErrMax= 3.72D-05  0.00D+00 EMaxC= 1.00D-01 BMatC= 8.49D-07 BMatP= 2.87D-06
 IDIUse=1 WtCom= 1.00D+00 WtEn= 0.00D+00
 Coeff-Com: -0.110D-03 0.242D-03-0.222D-02 0.273D-02-0.742D-01-0.111D+00
 Coeff-Com: -0.448D-01 0.123D+01
 Coeff:     -0.110D-03 0.242D-03-0.222D-02 0.273D-02-0.742D-01-0.111D+00
 Coeff:     -0.448D-01 0.123D+01
 Gap=     0.041 Goal=   None    Shift=    0.000
 Gap=     0.038 Goal=   None    Shift=    0.000
 RMSDP=7.59D-05 MaxDP=3.39D-03 DE=-1.51D-05 OVMax= 8.03D-03

 Cycle   9  Pass 1  IDiag  1:
 RMSU=  3.15D-05    CP:  8.80D-01  3.00D+00  8.14D-01  5.63D-01  1.44D+00
                    CP:  1.27D+00  1.68D+00  1.65D+00
 E= -1136.10375853019     Delta-E=       -0.000009371529 Rises=F Damp=F
 DIIS: error= 2.76D-05 at cycle   9 NSaved=   9.
 NSaved= 9 IEnMin= 9 EnMin= -1136.10375853019     IErMin= 9 ErrMin= 2.76D-05
 ErrMax= 2.76D-05  0.00D+00 EMaxC= 1.00D-01 BMatC= 4.34D-07 BMatP= 8.49D-07
 IDIUse=1 WtCom= 1.00D+00 WtEn= 0.00D+00
 Coeff-Com:  0.157D-03-0.169D-03 0.391D-02 0.645D-02-0.297D-01-0.897D-01
 Coeff-Com: -0.353D+00 0.578D+00 0.883D+00
 Coeff:      0.157D-03-0.169D-03 0.391D-02 0.645D-02-0.297D-01-0.897D-01
 Coeff:     -0.353D+00 0.578D+00 0.883D+00
 Gap=     0.041 Goal=   None    Shift=    0.000
 Gap=     0.038 Goal=   None    Shift=    0.000
 RMSDP=4.76D-05 MaxDP=2.38D-03 DE=-9.37D-06 OVMax= 5.27D-03

 Cycle  10  Pass 1  IDiag  1:
 RMSU=  1.59D-05    CP:  8.80D-01  3.00D+00  8.16D-01  5.64D-01  1.45D+00
                    CP:  1.32D+00  1.88D+00  2.30D+00  1.46D+00
 E= -1136.10376206357     Delta-E=       -0.000003533384 Rises=F Damp=F
 DIIS: error= 1.50D-05 at cycle  10 NSaved=  10.
 NSaved=10 IEnMin=10 EnMin= -1136.10376206357     IErMin=10 ErrMin= 1.50D-05
 ErrMax= 1.50D-05  0.00D+00 EMaxC= 1.00D-01 BMatC= 1.03D-07 BMatP= 4.34D-07
 IDIUse=1 WtCom= 1.00D+00 WtEn= 0.00D+00
 Coeff-Com:  0.122D-03-0.163D-03 0.244D-02-0.443D-03 0.337D-01 0.194D-01
 Coeff-Com: -0.126D+00-0.216D+00 0.149D+00 0.114D+01
 Coeff:      0.122D-03-0.163D-03 0.244D-02-0.443D-03 0.337D-01 0.194D-01
 Coeff:     -0.126D+00-0.216D+00 0.149D+00 0.114D+01
 Gap=     0.041 Goal=   None    Shift=    0.000
 Gap=     0.038 Goal=   None    Shift=    0.000
 RMSDP=3.17D-05 MaxDP=1.66D-03 DE=-3.53D-06 OVMax= 3.40D-03

 Cycle  11  Pass 1  IDiag  1:
 RMSU=  8.06D-06    CP:  8.80D-01  3.00D+00  8.16D-01  5.63D-01  1.45D+00
                    CP:  1.33D+00  1.96D+00  2.74D+00  1.99D+00  1.53D+00
 E= -1136.10376325512     Delta-E=       -0.000001191547 Rises=F Damp=F
 DIIS: error= 6.50D-06 at cycle  11 NSaved=  11.
 NSaved=11 IEnMin=11 EnMin= -1136.10376325512     IErMin=11 ErrMin= 6.50D-06
 ErrMax= 6.50D-06  0.00D+00 EMaxC= 1.00D-01 BMatC= 2.78D-08 BMatP= 1.03D-07
 IDIUse=1 WtCom= 1.00D+00 WtEn= 0.00D+00
 Coeff-Com:  0.150D-03-0.210D-03 0.503D-04-0.244D-02 0.269D-01 0.363D-01
 Coeff-Com:  0.407D-01-0.248D+00-0.193D+00 0.383D+00 0.956D+00
 Coeff:      0.150D-03-0.210D-03 0.503D-04-0.244D-02 0.269D-01 0.363D-01
 Coeff:      0.407D-01-0.248D+00-0.193D+00 0.383D+00 0.956D+00
 Gap=     0.041 Goal=   None    Shift=    0.000
 Gap=     0.038 Goal=   None    Shift=    0.000
 RMSDP=1.64D-05 MaxDP=8.61D-04 DE=-1.19D-06 OVMax= 1.72D-03

 Cycle  12  Pass 1  IDiag  1:
 RMSU=  2.52D-06    CP:  8.80D-01  3.00D+00  8.16D-01  5.62D-01  1.45D+00
                    CP:  1.33D+00  2.00D+00  2.94D+00  2.25D+00  2.00D+00
                    CP:  1.51D+00
 E= -1136.10376349475     Delta-E=       -0.000000239634 Rises=F Damp=F
 DIIS: error= 2.50D-06 at cycle  12 NSaved=  12.
 NSaved=12 IEnMin=12 EnMin= -1136.10376349475     IErMin=12 ErrMin= 2.50D-06
 ErrMax= 2.50D-06  0.00D+00 EMaxC= 1.00D-01 BMatC= 4.18D-09 BMatP= 2.78D-08
 IDIUse=1 WtCom= 1.00D+00 WtEn= 0.00D+00
 Coeff-Com:  0.527D-04-0.733D-04-0.458D-03-0.720D-03 0.272D-02 0.979D-02
 Coeff-Com:  0.336D-01-0.452D-01-0.858D-01-0.793D-01 0.293D+00 0.872D+00
 Coeff:      0.527D-04-0.733D-04-0.458D-03-0.720D-03 0.272D-02 0.979D-02
 Coeff:      0.336D-01-0.452D-01-0.858D-01-0.793D-01 0.293D+00 0.872D+00
 Gap=     0.041 Goal=   None    Shift=    0.000
 Gap=     0.038 Goal=   None    Shift=    0.000
 RMSDP=5.06D-06 MaxDP=2.84D-04 DE=-2.40D-07 OVMax= 5.76D-04

 Cycle  13  Pass 1  IDiag  1:
 RMSU=  1.48D-06    CP:  8.80D-01  3.00D+00  8.16D-01  5.62D-01  1.45D+00
                    CP:  1.34D+00  2.01D+00  2.99D+00  2.34D+00  2.11D+00
                    CP:  1.75D+00  1.42D+00
 E= -1136.10376352378     Delta-E=       -0.000000029025 Rises=F Damp=F
 DIIS: error= 1.64D-06 at cycle  13 NSaved=  13.
 NSaved=13 IEnMin=13 EnMin= -1136.10376352378     IErMin=13 ErrMin= 1.64D-06
 ErrMax= 1.64D-06  0.00D+00 EMaxC= 1.00D-01 BMatC= 1.13D-09 BMatP= 4.18D-09
 IDIUse=1 WtCom= 1.00D+00 WtEn= 0.00D+00
 Coeff-Com: -0.138D-04 0.194D-04-0.344D-03 0.129D-03-0.331D-02-0.219D-02
 Coeff-Com:  0.478D-02 0.217D-01 0.328D-02-0.879D-01-0.423D-01 0.243D+00
 Coeff-Com:  0.863D+00
 Coeff:     -0.138D-04 0.194D-04-0.344D-03 0.129D-03-0.331D-02-0.219D-02
 Coeff:      0.478D-02 0.217D-01 0.328D-02-0.879D-01-0.423D-01 0.243D+00
 Coeff:      0.863D+00
 Gap=     0.041 Goal=   None    Shift=    0.000
 Gap=     0.038 Goal=   None    Shift=    0.000
 RMSDP=1.98D-06 MaxDP=1.10D-04 DE=-2.90D-08 OVMax= 2.31D-04

 Cycle  14  Pass 1  IDiag  1:
 RMSU=  9.44D-07    CP:  8.80D-01  3.00D+00  8.16D-01  5.62D-01  1.45D+00
                    CP:  1.34D+00  2.01D+00  3.00D+00  2.35D+00  2.15D+00
                    CP:  1.85D+00  1.68D+00  1.25D+00
 E= -1136.10376353003     Delta-E=       -0.000000006258 Rises=F Damp=F
 DIIS: error= 1.09D-06 at cycle  14 NSaved=  14.
 NSaved=14 IEnMin=14 EnMin= -1136.10376353003     IErMin=14 ErrMin= 1.09D-06
 ErrMax= 1.09D-06  0.00D+00 EMaxC= 1.00D-01 BMatC= 5.26D-10 BMatP= 1.13D-09
 IDIUse=1 WtCom= 1.00D+00 WtEn= 0.00D+00
 Coeff-Com: -0.223D-04 0.309D-04-0.681D-04 0.277D-03-0.193D-02-0.379D-02
 Coeff-Com: -0.936D-02 0.239D-01 0.293D-01-0.177D-01-0.887D-01-0.168D+00
 Coeff-Com:  0.401D+00 0.836D+00
 Coeff:     -0.223D-04 0.309D-04-0.681D-04 0.277D-03-0.193D-02-0.379D-02
 Coeff:     -0.936D-02 0.239D-01 0.293D-01-0.177D-01-0.887D-01-0.168D+00
 Coeff:      0.401D+00 0.836D+00
 Gap=     0.041 Goal=   None    Shift=    0.000
 Gap=     0.038 Goal=   None    Shift=    0.000
 RMSDP=1.04D-06 MaxDP=6.81D-05 DE=-6.26D-09 OVMax= 1.15D-04

 Cycle  15  Pass 1  IDiag  1:
 RMSU=  3.09D-07    CP:  8.80D-01  3.00D+00  8.16D-01  5.62D-01  1.45D+00
                    CP:  1.34D+00  2.01D+00  3.00D+00  2.36D+00  2.15D+00
                    CP:  1.88D+00  1.77D+00  1.73D+00  1.51D+00
 E= -1136.10376353280     Delta-E=       -0.000000002764 Rises=F Damp=F
 DIIS: error= 6.18D-07 at cycle  15 NSaved=  15.
 NSaved=15 IEnMin=15 EnMin= -1136.10376353280     IErMin=15 ErrMin= 6.18D-07
 ErrMax= 6.18D-07  0.00D+00 EMaxC= 1.00D-01 BMatC= 1.15D-10 BMatP= 5.26D-10
 IDIUse=1 WtCom= 1.00D+00 WtEn= 0.00D+00
 Coeff-Com:  0.723D-05-0.105D-04 0.158D-03-0.880D-04 0.211D-02 0.179D-02
 Coeff-Com: -0.171D-02-0.126D-01-0.562D-02 0.387D-01 0.397D-01-0.118D+00
 Coeff-Com: -0.374D+00-0.863D-01 0.152D+01
 Coeff:      0.723D-05-0.105D-04 0.158D-03-0.880D-04 0.211D-02 0.179D-02
 Coeff:     -0.171D-02-0.126D-01-0.562D-02 0.387D-01 0.397D-01-0.118D+00
 Coeff:     -0.374D+00-0.863D-01 0.152D+01
 Gap=     0.041 Goal=   None    Shift=    0.000
 Gap=     0.038 Goal=   None    Shift=    0.000
 RMSDP=1.15D-06 MaxDP=6.50D-05 DE=-2.76D-09 OVMax= 1.73D-04

 Cycle  16  Pass 1  IDiag  1:
 RMSU=  1.97D-07    CP:  8.80D-01  3.00D+00  8.16D-01  5.62D-01  1.45D+00
                    CP:  1.34D+00  2.01D+00  3.00D+00  2.37D+00  2.16D+00
                    CP:  1.90D+00  1.87D+00  2.08D+00  2.27D+00  2.76D+00
 E= -1136.10376353442     Delta-E=       -0.000000001620 Rises=F Damp=F
 DIIS: error= 2.32D-07 at cycle  16 NSaved=  16.
 NSaved=16 IEnMin=16 EnMin= -1136.10376353442     IErMin=16 ErrMin= 2.32D-07
 ErrMax= 2.32D-07  0.00D+00 EMaxC= 1.00D-01 BMatC= 1.83D-11 BMatP= 1.15D-10
 IDIUse=1 WtCom= 1.00D+00 WtEn= 0.00D+00
 Coeff-Com:  0.104D-04-0.143D-04 0.153D-04-0.493D-04 0.469D-03 0.697D-03
 Coeff-Com:  0.101D-02-0.412D-02-0.423D-02 0.902D-03 0.148D-01 0.372D-01
 Coeff-Com: -0.573D-01-0.185D+00-0.531D-01 0.125D+01
 Coeff:      0.104D-04-0.143D-04 0.153D-04-0.493D-04 0.469D-03 0.697D-03
 Coeff:      0.101D-02-0.412D-02-0.423D-02 0.902D-03 0.148D-01 0.372D-01
 Coeff:     -0.573D-01-0.185D+00-0.531D-01 0.125D+01
 Gap=     0.041 Goal=   None    Shift=    0.000
 Gap=     0.038 Goal=   None    Shift=    0.000
 RMSDP=4.87D-07 MaxDP=2.30D-05 DE=-1.62D-09 OVMax= 7.82D-05

 Cycle  17  Pass 1  IDiag  1:
 RMSU=  2.18D-07    CP:  8.80D-01  3.00D+00  8.16D-01  5.62D-01  1.45D+00
                    CP:  1.34D+00  2.01D+00  3.00D+00  2.37D+00  2.16D+00
                    CP:  1.91D+00  1.90D+00  2.19D+00  2.57D+00  3.00D+00
                    CP:  1.75D+00
 E= -1136.10376353467     Delta-E=       -0.000000000251 Rises=F Damp=F
 DIIS: error= 9.07D-08 at cycle  17 NSaved=  17.
 NSaved=17 IEnMin=17 EnMin= -1136.10376353467     IErMin=17 ErrMin= 9.07D-08
 ErrMax= 9.07D-08  0.00D+00 EMaxC= 1.00D-01 BMatC= 3.91D-12 BMatP= 1.83D-11
 IDIUse=1 WtCom= 1.00D+00 WtEn= 0.00D+00
 Coeff-Com:  0.118D-05-0.161D-05-0.195D-04-0.153D-04 0.227D-04 0.133D-03
 Coeff-Com:  0.512D-03-0.784D-03-0.937D-03-0.222D-02 0.373D-02 0.157D-01
 Coeff-Com:  0.348D-01-0.465D-01-0.215D+00 0.282D+00 0.928D+00
 Coeff:      0.118D-05-0.161D-05-0.195D-04-0.153D-04 0.227D-04 0.133D-03
 Coeff:      0.512D-03-0.784D-03-0.937D-03-0.222D-02 0.373D-02 0.157D-01
 Coeff:      0.348D-01-0.465D-01-0.215D+00 0.282D+00 0.928D+00
 Gap=     0.041 Goal=   None    Shift=    0.000
 Gap=     0.038 Goal=   None    Shift=    0.000
 RMSDP=1.57D-07 MaxDP=6.49D-06 DE=-2.51D-10 OVMax= 2.21D-05

 Cycle  18  Pass 1  IDiag  1:
 RMSU=  4.00D-08    CP:  8.80D-01  3.00D+00  8.16D-01  5.62D-01  1.45D+00
                    CP:  1.34D+00  2.01D+00  3.00D+00  2.37D+00  2.16D+00
                    CP:  1.91D+00  1.91D+00  2.22D+00  2.65D+00  3.00D+00
                    CP:  2.06D+00  1.50D+00
 E= -1136.10376353469     Delta-E=       -0.000000000017 Rises=F Damp=F
 DIIS: error= 4.31D-08 at cycle  18 NSaved=  18.
 NSaved=18 IEnMin=18 EnMin= -1136.10376353469     IErMin=18 ErrMin= 4.31D-08
 ErrMax= 4.31D-08  0.00D+00 EMaxC= 1.00D-01 BMatC= 5.20D-13 BMatP= 3.91D-12
 IDIUse=1 WtCom= 1.00D+00 WtEn= 0.00D+00
 Coeff-Com: -0.131D-05 0.180D-05-0.777D-05 0.462D-05-0.106D-03-0.830D-04
 Coeff-Com: -0.490D-04 0.644D-03 0.430D-03-0.119D-02-0.144D-02-0.188D-02
 Coeff-Com:  0.189D-01 0.132D-01-0.321D-01-0.139D+00 0.125D+00 0.102D+01
 Coeff:     -0.131D-05 0.180D-05-0.777D-05 0.462D-05-0.106D-03-0.830D-04
 Coeff:     -0.490D-04 0.644D-03 0.430D-03-0.119D-02-0.144D-02-0.188D-02
 Coeff:      0.189D-01 0.132D-01-0.321D-01-0.139D+00 0.125D+00 0.102D+01
 Gap=     0.041 Goal=   None    Shift=    0.000
 Gap=     0.038 Goal=   None    Shift=    0.000
 RMSDP=7.16D-08 MaxDP=2.61D-06 DE=-1.71D-11 OVMax= 8.37D-06

 Cycle  19  Pass 1  IDiag  1:
 RMSU=  2.38D-08    CP:  8.80D-01  3.00D+00  8.16D-01  5.62D-01  1.45D+00
                    CP:  1.34D+00  2.01D+00  3.00D+00  2.37D+00  2.16D+00
                    CP:  1.91D+00  1.91D+00  2.22D+00  2.67D+00  3.00D+00
                    CP:  2.21D+00  1.70D+00  1.55D+00
 E= -1136.10376353469     Delta-E=       -0.000000000003 Rises=F Damp=F
 DIIS: error= 1.56D-08 at cycle  19 NSaved=  19.
 NSaved=19 IEnMin=19 EnMin= -1136.10376353469     IErMin=19 ErrMin= 1.56D-08
 ErrMax= 1.56D-08  0.00D+00 EMaxC= 1.00D-01 BMatC= 7.19D-14 BMatP= 5.20D-13
 IDIUse=1 WtCom= 1.00D+00 WtEn= 0.00D+00
 Coeff-Com: -0.244D-06 0.320D-06 0.252D-05 0.248D-05-0.896D-05-0.221D-04
 Coeff-Com: -0.271D-04 0.654D-04 0.152D-03 0.296D-03-0.739D-03-0.183D-02
 Coeff-Com: -0.660D-02 0.829D-02 0.346D-01-0.534D-01-0.149D+00 0.437D-01
 Coeff-Com:  0.112D+01
 Coeff:     -0.244D-06 0.320D-06 0.252D-05 0.248D-05-0.896D-05-0.221D-04
 Coeff:     -0.271D-04 0.654D-04 0.152D-03 0.296D-03-0.739D-03-0.183D-02
 Coeff:     -0.660D-02 0.829D-02 0.346D-01-0.534D-01-0.149D+00 0.437D-01
 Coeff:      0.112D+01
 Gap=     0.041 Goal=   None    Shift=    0.000
 Gap=     0.038 Goal=   None    Shift=    0.000
 RMSDP=3.31D-08 MaxDP=1.40D-06 DE=-2.73D-12 OVMax= 2.77D-06

 Cycle  20  Pass 1  IDiag  1:
 RMSU=  5.99D-09    CP:  8.80D-01  3.00D+00  8.16D-01  5.62D-01  1.45D+00
                    CP:  1.34D+00  2.01D+00  3.00D+00  2.37D+00  2.16D+00
                    CP:  1.91D+00  1.92D+00  2.23D+00  2.67D+00  3.00D+00
                    CP:  2.27D+00  1.76D+00  1.81D+00  1.71D+00
 E= -1136.10376353469     Delta-E=       -0.000000000001 Rises=F Damp=F
 DIIS: error= 5.18D-09 at cycle  20 NSaved=  20.
 NSaved=20 IEnMin=20 EnMin= -1136.10376353469     IErMin=20 ErrMin= 5.18D-09
 ErrMax= 5.18D-09  0.00D+00 EMaxC= 1.00D-01 BMatC= 7.98D-15 BMatP= 7.19D-14
 IDIUse=1 WtCom= 1.00D+00 WtEn= 0.00D+00
 Coeff-Com:  0.435D-07-0.602D-07 0.121D-05-0.697D-06 0.164D-04 0.159D-04
 Coeff-Com:  0.208D-04-0.107D-03-0.867D-04 0.190D-03 0.356D-03 0.106D-03
 Coeff-Com: -0.251D-02-0.179D-02 0.549D-02 0.133D-01-0.922D-02-0.127D+00
 Coeff-Com:  0.261D-01 0.109D+01
 Coeff:      0.435D-07-0.602D-07 0.121D-05-0.697D-06 0.164D-04 0.159D-04
 Coeff:      0.208D-04-0.107D-03-0.867D-04 0.190D-03 0.356D-03 0.106D-03
 Coeff:     -0.251D-02-0.179D-02 0.549D-02 0.133D-01-0.922D-02-0.127D+00
 Coeff:      0.261D-01 0.109D+01
 Gap=     0.041 Goal=   None    Shift=    0.000
 Gap=     0.038 Goal=   None    Shift=    0.000
 RMSDP=8.39D-09 MaxDP=2.96D-07 DE=-1.36D-12 OVMax= 4.53D-07

 SCF Done:  E(UB3LYP) =  -1136.10376353     A.U. after   20 cycles
            NFock= 20  Conv=0.84D-08     -V/T= 2.0028
 <Sx>= 0.0000 <Sy>= 0.0000 <Sz>= 0.5000 <S**2>= 0.7948 S= 0.5222
 <L.S>= 0.000000000000E+00
 KE= 1.132972315886D+03 PE=-3.287179731250D+03 EE= 7.390958888556D+02
 Annihilation of the first spin contaminant:
 S**2 before annihilation     0.7948,   after     0.7510
 Leave Link  502 at Tue Nov 21 11:50:13 2023, MaxMem=   104857600 cpu:             651.5 elap:             535.7
 (Enter /home/sekinelabo/g16/l601.exe)
 Copying SCF densities to generalized density rwf, IOpCl= 1 IROHF=0.

 **********************************************************************

            Population analysis using the SCF Density.

 **********************************************************************

 Orbital symmetries:
 Alpha Orbitals:
       Occupied  (A) (A) (A) (A) (A) (A) (A) (A) (A) (A) (A) (A)
                 (A) (A) (A) (A) (A) (A) (A) (A) (A) (A) (A) (A)
                 (A) (A) (A) (A) (A) (A) (A) (A) (A) (A) (A) (A)
                 (A) (A) (A)
       Virtual   (A) (A) (A) (A) (A) (A) (A) (A) (A) (A) (A) (A)
                 (A) (A) (A) (A) (A) (A) (A) (A) (A) (A) (A) (A)
                 (A) (A) (A) (A) (A) (A) (A) (A) (A) (A) (A) (A)
                 (A) (A) (A) (A) (A) (A) (A) (A) (A) (A) (A) (A)
                 (A) (A) (A) (A) (A) (A) (A) (A) (A) (A) (A) (A)
                 (A) (A) (A) (A) (A) (A) (A) (A) (A) (A) (A) (A)
                 (A) (A) (A) (A) (A) (A) (A) (A) (A) (A) (A) (A)
                 (A) (A) (A) (A) (A) (A) (A) (A) (A) (A) (A) (A)
                 (A) (A) (A) (A) (A) (A) (A) (A) (A) (A) (A) (A)
                 (A) (A) (A) (A) (A) (A) (A) (A) (A) (A) (A) (A)
                 (A) (A) (A) (A) (A) (A) (A) (A) (A) (A) (A) (A)
                 (A) (A) (A) (A) (A) (A) (A) (A) (A) (A) (A) (A)
                 (A) (A) (A) (A) (A) (A) (A) (A) (A) (A) (A) (A)
                 (A) (A) (A) (A) (A) (A) (A) (A) (A) (A) (A) (A)
                 (A) (A) (A)
 Beta  Orbitals:
       Occupied  (A) (A) (A) (A) (A) (A) (A) (A) (A) (A) (A) (A)
                 (A) (A) (A) (A) (A) (A) (A) (A) (A) (A) (A) (A)
                 (A) (A) (A) (A) (A) (A) (A) (A) (A) (A) (A) (A)
                 (A) (A)
       Virtual   (A) (A) (A) (A) (A) (A) (A) (A) (A) (A) (A) (A)
                 (A) (A) (A) (A) (A) (A) (A) (A) (A) (A) (A) (A)
                 (A) (A) (A) (A) (A) (A) (A) (A) (A) (A) (A) (A)
                 (A) (A) (A) (A) (A) (A) (A) (A) (A) (A) (A) (A)
                 (A) (A) (A) (A) (A) (A) (A) (A) (A) (A) (A) (A)
                 (A) (A) (A) (A) (A) (A) (A) (A) (A) (A) (A) (A)
                 (A) (A) (A) (A) (A) (A) (A) (A) (A) (A) (A) (A)
                 (A) (A) (A) (A) (A) (A) (A) (A) (A) (A) (A) (A)
                 (A) (A) (A) (A) (A) (A) (A) (A) (A) (A) (A) (A)
                 (A) (A) (A) (A) (A) (A) (A) (A) (A) (A) (A) (A)
                 (A) (A) (A) (A) (A) (A) (A) (A) (A) (A) (A) (A)
                 (A) (A) (A) (A) (A) (A) (A) (A) (A) (A) (A) (A)
                 (A) (A) (A) (A) (A) (A) (A) (A) (A) (A) (A) (A)
                 (A) (A) (A) (A) (A) (A) (A) (A) (A) (A) (A) (A)
                 (A) (A) (A) (A)
 The electronic state is 2-A.
 Alpha  occ. eigenvalues --  -38.45107 -38.45040 -38.44385 -38.44130 -38.44091
 Alpha  occ. eigenvalues --  -38.43256 -38.43224  -2.20935  -2.20917  -2.20202
 Alpha  occ. eigenvalues --   -2.20010  -2.19956  -2.19112  -2.19058  -1.14739
 Alpha  occ. eigenvalues --   -1.14646  -1.14578  -1.14558  -1.14540  -1.14448
 Alpha  occ. eigenvalues --   -1.13865  -1.13848  -1.13823  -1.13692  -1.13650
 Alpha  occ. eigenvalues --   -1.13649  -1.13637  -1.13596  -1.13556  -1.12790
 Alpha  occ. eigenvalues --   -1.12778  -1.12758  -1.12754  -1.12711  -1.12701
 Alpha  occ. eigenvalues --   -0.16368  -0.15013  -0.11750  -0.10949
 Alpha virt. eigenvalues --   -0.06856  -0.05056  -0.04467  -0.03603  -0.03203
 Alpha virt. eigenvalues --   -0.02605  -0.02075  -0.01560  -0.01026  -0.00681
 Alpha virt. eigenvalues --   -0.00021   0.00075   0.00305   0.00462   0.00567
 Alpha virt. eigenvalues --    0.00726   0.00768   0.00979   0.01020   0.01190
 Alpha virt. eigenvalues --    0.01345   0.01547   0.01620   0.01775   0.01808
 Alpha virt. eigenvalues --    0.01931   0.02079   0.02239   0.02307   0.02427
 Alpha virt. eigenvalues --    0.02576   0.02622   0.02697   0.02753   0.02895
 Alpha virt. eigenvalues --    0.02921   0.03117   0.03226   0.03295   0.03454
 Alpha virt. eigenvalues --    0.03584   0.03783   0.03899   0.04242   0.04327
 Alpha virt. eigenvalues --    0.04593   0.04924   0.05091   0.05187   0.05816
 Alpha virt. eigenvalues --    0.06066   0.06269   0.06402   0.07017   0.07418
 Alpha virt. eigenvalues --    0.07546   0.07712   0.07841   0.08108   0.08478
 Alpha virt. eigenvalues --    0.08710   0.09009   0.09234   0.09370   0.09814
 Alpha virt. eigenvalues --    0.10015   0.10371   0.10908   0.11272   0.11673
 Alpha virt. eigenvalues --    0.12141   0.12379   0.13095   0.13889   0.14535
 Alpha virt. eigenvalues --    0.14805   0.15161   0.15495   0.16291   0.17317
 Alpha virt. eigenvalues --    0.26836   0.27686   0.28355   0.28994   0.29426
 Alpha virt. eigenvalues --    0.29513   0.30545   0.31293   0.31715   0.32244
 Alpha virt. eigenvalues --    0.32959   0.33745   0.34900   0.35118   0.35440
 Alpha virt. eigenvalues --    0.35696   0.36616   0.36793   0.38006   0.38964
 Alpha virt. eigenvalues --    0.40637   0.42140   0.42747   0.43027   0.43455
 Alpha virt. eigenvalues --    0.43669   0.44160   0.44275   0.44759   0.44775
 Alpha virt. eigenvalues --    0.45021   0.45346   0.45908   0.46107   0.46736
 Alpha virt. eigenvalues --    0.46799   0.47953   0.48167   0.48415   0.48488
 Alpha virt. eigenvalues --    0.48958   0.49632   0.49808   0.51104   0.51493
 Alpha virt. eigenvalues --    0.51919   0.52693   0.54114   0.56370   0.57606
 Alpha virt. eigenvalues --    0.61864   0.64701   0.69469   0.71466   0.74757
 Alpha virt. eigenvalues --    0.76139   2.04995   2.07344   2.09723   2.12356
 Alpha virt. eigenvalues --    2.15133   2.18555   2.22233   4.41057   4.41509
 Alpha virt. eigenvalues --    4.42374   4.42760   4.43086   4.43680   4.44059
 Alpha virt. eigenvalues --    4.44576   4.44962   4.45496   4.46525   4.46776
 Alpha virt. eigenvalues --    4.47161   4.48044   4.48856   4.53247   4.58577
 Alpha virt. eigenvalues --    4.63969   4.66080   4.67131   4.69103  96.24919
 Alpha virt. eigenvalues --   96.27798  96.30800  96.34456  96.38187  96.42504
 Alpha virt. eigenvalues --   96.46857
  Beta  occ. eigenvalues --  -38.45067 -38.45043 -38.44314 -38.44054 -38.44051
  Beta  occ. eigenvalues --  -38.43264 -38.43234  -2.20935  -2.20853  -2.20068
  Beta  occ. eigenvalues --   -2.19879  -2.19869  -2.19132  -2.19081  -1.14710
  Beta  occ. eigenvalues --   -1.14642  -1.14569  -1.14510  -1.14506  -1.14422
  Beta  occ. eigenvalues --   -1.13779  -1.13756  -1.13729  -1.13602  -1.13600
  Beta  occ. eigenvalues --   -1.13555  -1.13542  -1.13540  -1.13511  -1.12795
  Beta  occ. eigenvalues --   -1.12779  -1.12764  -1.12754  -1.12730  -1.12701
  Beta  occ. eigenvalues --   -0.15891  -0.14528  -0.11415
  Beta virt. eigenvalues --   -0.07638  -0.06301  -0.04718  -0.04088  -0.03438
  Beta virt. eigenvalues --   -0.02674  -0.02436  -0.01676  -0.01403  -0.00818
  Beta virt. eigenvalues --   -0.00403   0.00066   0.00228   0.00424   0.00610
  Beta virt. eigenvalues --    0.00680   0.00780   0.00830   0.01067   0.01080
  Beta virt. eigenvalues --    0.01303   0.01480   0.01622   0.01678   0.01795
  Beta virt. eigenvalues --    0.01903   0.02048   0.02145   0.02308   0.02377
  Beta virt. eigenvalues --    0.02509   0.02629   0.02720   0.02753   0.02868
  Beta virt. eigenvalues --    0.02948   0.02973   0.03202   0.03305   0.03379
  Beta virt. eigenvalues --    0.03493   0.03676   0.03836   0.03926   0.04292
  Beta virt. eigenvalues --    0.04409   0.04726   0.04970   0.05153   0.05288
  Beta virt. eigenvalues --    0.05856   0.06123   0.06306   0.06498   0.07126
  Beta virt. eigenvalues --    0.07504   0.07632   0.07843   0.07859   0.08177
  Beta virt. eigenvalues --    0.08765   0.08964   0.09129   0.09420   0.09594
  Beta virt. eigenvalues --    0.09942   0.10184   0.10569   0.11087   0.11530
  Beta virt. eigenvalues --    0.11899   0.12241   0.12506   0.13191   0.14036
  Beta virt. eigenvalues --    0.14722   0.14955   0.15342   0.15712   0.16440
  Beta virt. eigenvalues --    0.17470   0.27128   0.27950   0.28628   0.29302
  Beta virt. eigenvalues --    0.29722   0.29832   0.30843   0.31516   0.31922
  Beta virt. eigenvalues --    0.32529   0.33066   0.34089   0.35304   0.35411
  Beta virt. eigenvalues --    0.35833   0.36140   0.37024   0.37270   0.38458
  Beta virt. eigenvalues --    0.39110   0.40844   0.42341   0.42968   0.43137
  Beta virt. eigenvalues --    0.43457   0.43893   0.44077   0.44519   0.44738
  Beta virt. eigenvalues --    0.44930   0.45166   0.45513   0.46115   0.46134
  Beta virt. eigenvalues --    0.46884   0.46959   0.48145   0.48258   0.48547
  Beta virt. eigenvalues --    0.48665   0.49128   0.49806   0.49921   0.51316
  Beta virt. eigenvalues --    0.51676   0.52042   0.52840   0.54340   0.56444
  Beta virt. eigenvalues --    0.57796   0.62054   0.64872   0.69570   0.71625
  Beta virt. eigenvalues --    0.74908   0.76227   2.05117   2.07518   2.09892
  Beta virt. eigenvalues --    2.12576   2.15131   2.18624   2.22335   4.41093
  Beta virt. eigenvalues --    4.41579   4.42414   4.42808   4.43116   4.43740
  Beta virt. eigenvalues --    4.44107   4.44638   4.45028   4.45577   4.46548
  Beta virt. eigenvalues --    4.46819   4.47165   4.48105   4.48927   4.53252
  Beta virt. eigenvalues --    4.58619   4.64010   4.66106   4.67190   4.69150
  Beta virt. eigenvalues --   96.24960  96.27854  96.30856  96.34526  96.38192
  Beta virt. eigenvalues --   96.42526  96.46892
          Condensed to atoms (all electrons):
               1          2          3          4          5          6
     1  Na  11.146900  -0.030484   0.141049  -0.285860  -0.255454   0.078202
     2  Na  -0.030484  10.755765  -0.015721   0.143159   0.294757  -0.111944
     3  Na   0.141049  -0.015721  10.952824  -0.006755  -0.462162   0.099113
     4  Na  -0.285860   0.143159  -0.006755  10.856505   0.421658  -0.133369
     5  Na  -0.255454   0.294757  -0.462162   0.421658  12.787799  -0.559921
     6  Na   0.078202  -0.111944   0.099113  -0.133369  -0.559921  10.782956
     7  Na  -0.006040   0.012940  -0.012689  -0.047274   0.105576   0.157398
               7
     1  Na  -0.006040
     2  Na   0.012940
     3  Na  -0.012689
     4  Na  -0.047274
     5  Na   0.105576
     6  Na   0.157398
     7  Na  10.664896
          Atomic-Atomic Spin Densities.
               1          2          3          4          5          6
     1  Na   0.531261  -0.051155  -0.093791  -0.040165   0.027773  -0.001152
     2  Na  -0.051155  -0.098740   0.034278   0.010755  -0.012996   0.009874
     3  Na  -0.093791   0.034278   0.422314   0.096244  -0.089573   0.003953
     4  Na  -0.040165   0.010755   0.096244  -0.062442   0.023856  -0.039828
     5  Na   0.027773  -0.012996  -0.089573   0.023856   0.450368  -0.134668
     6  Na  -0.001152   0.009874   0.003953  -0.039828  -0.134668   0.058153
     7  Na  -0.006910   0.000403  -0.002960  -0.010173  -0.034761   0.058885
               7
     1  Na  -0.006910
     2  Na   0.000403
     3  Na  -0.002960
     4  Na  -0.010173
     5  Na  -0.034761
     6  Na   0.058885
     7  Na   0.203306
 Mulliken charges and spin densities:
               1          2
     1  Na   0.211687   0.365862
     2  Na  -0.048472  -0.107580
     3  Na   0.304341   0.370465
     4  Na   0.051936  -0.021754
     5  Na  -1.332252   0.230000
     6  Na   0.687565  -0.044783
     7  Na   0.125193   0.207790
 Sum of Mulliken charges =  -0.00000   1.00000
 Mulliken charges and spin densities with hydrogens summed into heavy atoms:
               1          2
     1  Na   0.211687   0.365862
     2  Na  -0.048472  -0.107580
     3  Na   0.304341   0.370465
     4  Na   0.051936  -0.021754
     5  Na  -1.332252   0.230000
     6  Na   0.687565  -0.044783
     7  Na   0.125193   0.207790
 Electronic spatial extent (au):  <R**2>=           4573.1348
 Charge=             -0.0000 electrons
 Dipole moment (field-independent basis, Debye):
    X=             -2.2960    Y=              0.1738    Z=              0.0582  Tot=              2.3033
 Quadrupole moment (field-independent basis, Debye-Ang):
   XX=            -61.6792   YY=            -72.9442   ZZ=            -64.5358
   XY=             -2.2893   XZ=              4.4309   YZ=             -1.6566
 Traceless Quadrupole moment (field-independent basis, Debye-Ang):
   XX=              4.7072   YY=             -6.5578   ZZ=              1.8506
   XY=             -2.2893   XZ=              4.4309   YZ=             -1.6566
 Octapole moment (field-independent basis, Debye-Ang**2):
  XXX=            -80.3431  YYY=              2.3691  ZZZ=              9.2763  XYY=             -4.5405
  XXY=            -15.7218  XXZ=            -22.4347  XZZ=            -18.7534  YZZ=             -3.8437
  YYZ=             -6.3447  XYZ=             -4.4877
 Hexadecapole moment (field-independent basis, Debye-Ang**3):
 XXXX=          -5247.2037 YYYY=          -1232.7739 ZZZZ=           -546.3417 XXXY=            -46.9738
 XXXZ=            374.8637 YYYX=            -16.3763 YYYZ=            -16.5884 ZZZX=            -23.9379
 ZZZY=              1.7264 XXYY=          -1268.2157 XXZZ=          -1016.8927 YYZZ=           -282.4370
 XXYZ=            -22.5480 YYXZ=              0.3743 ZZXY=            -12.0083
 N-N= 2.790077629735D+02 E-N=-3.287179731802D+03  KE= 1.132972315886D+03
                          Isotropic Fermi Contact Couplings
        Atom                 a.u.       MegaHertz       Gauss      10(-4) cm-1
     1  Na(23)             0.31115     368.10175     131.34786     122.78553
     2  Na(23)            -0.08798    -104.08324     -37.13949     -34.71843
     3  Na(23)             0.33718     398.89855     142.33692     133.05823
     4  Na(23)            -0.09344    -110.54065     -39.44365     -36.87239
     5  Na(23)             0.19019     225.00591      80.28770      75.05389
     6  Na(23)            -0.05566     -65.84726     -23.49594     -21.96428
     7  Na(23)             0.17312     204.80208      73.07848      68.31462
 --------------------------------------------------------
       Center         ----  Spin Dipole Couplings  ----
                      3XX-RR        3YY-RR        3ZZ-RR
 --------------------------------------------------------
     1   Atom        0.003062     -0.002118     -0.000945
     2   Atom       -0.018552      0.035196     -0.016644
     3   Atom       -0.002801      0.001011      0.001790
     4   Atom        0.012888     -0.001360     -0.011528
     5   Atom       -0.002601      0.001095      0.001507
     6   Atom        0.032852     -0.016333     -0.016519
     7   Atom       -0.003819      0.000908      0.002911
 --------------------------------------------------------
                        XY            XZ            YZ
 --------------------------------------------------------
     1   Atom        0.003961     -0.002319      0.002829
     2   Atom       -0.006007      0.002725     -0.015374
     3   Atom       -0.004750     -0.005547      0.001713
     4   Atom       -0.023841      0.014950     -0.009700
     5   Atom        0.011788      0.008310     -0.003793
     6   Atom        0.005354     -0.000352      0.000395
     7   Atom       -0.000465     -0.004075     -0.000856
 --------------------------------------------------------


 ---------------------------------------------------------------------------------
              Anisotropic Spin Dipole Couplings in Principal Axis System
 ---------------------------------------------------------------------------------

       Atom             a.u.   MegaHertz   Gauss  10(-4) cm-1        Axes

              Baa    -0.0066    -0.928    -0.331    -0.309 -0.4280  0.7243 -0.5406
     1 Na(23) Bbb     0.0013     0.179     0.064     0.060 -0.1280  0.5436  0.8295
              Bcc     0.0053     0.749     0.267     0.250  0.8947  0.4242 -0.1399
 
              Baa    -0.0214    -3.018    -1.077    -1.007 -0.4397  0.1918  0.8774
     2 Na(23) Bbb    -0.0188    -2.650    -0.946    -0.884  0.8913  0.2132  0.4001
              Bcc     0.0401     5.668     2.022     1.891 -0.1103  0.9580 -0.2647
 
              Baa    -0.0077    -1.089    -0.389    -0.363  0.8298  0.3698  0.4178
     3 Na(23) Bbb    -0.0004    -0.050    -0.018    -0.017 -0.0143  0.7626 -0.6467
              Bcc     0.0081     1.139     0.406     0.380 -0.5578  0.5307  0.6381
 
              Baa    -0.0198    -2.794    -0.997    -0.932  0.6486  0.5792 -0.4938
     4 Na(23) Bbb    -0.0174    -2.452    -0.875    -0.818  0.0754  0.5967  0.7989
              Bcc     0.0371     5.246     1.872     1.750  0.7574 -0.5554  0.3433
 
              Baa    -0.0169    -2.389    -0.853    -0.797  0.7092 -0.5555 -0.4342
     5 Na(23) Bbb     0.0049     0.690     0.246     0.230  0.1006 -0.5298  0.8422
              Bcc     0.0120     1.700     0.606     0.567  0.6978  0.6409  0.3198
 
              Baa    -0.0172    -2.427    -0.866    -0.810 -0.0931  0.8348 -0.5426
     6 Na(23) Bbb    -0.0162    -2.294    -0.818    -0.765 -0.0529  0.5401  0.8400
              Bcc     0.0334     4.721     1.684     1.575  0.9942  0.1069 -0.0062
 
              Baa    -0.0058    -0.823    -0.294    -0.275  0.8958  0.1163  0.4290
     7 Na(23) Bbb     0.0009     0.129     0.046     0.043 -0.1666  0.9827  0.0815
              Bcc     0.0049     0.694     0.248     0.232 -0.4121 -0.1444  0.8996
 

 ---------------------------------------------------------------------------------

 No NMR shielding tensors so no spin-rotation constants.
 Leave Link  601 at Tue Nov 21 11:50:20 2023, MaxMem=   104857600 cpu:              18.2 elap:               7.0
 (Enter /home/sekinelabo/g16/l701.exe)
 ... and contract with generalized density number  0.
 Compute integral first derivatives.
 Leave Link  701 at Tue Nov 21 11:50:23 2023, MaxMem=   104857600 cpu:               7.3 elap:               2.8
 (Enter /home/sekinelabo/g16/l702.exe)
 L702 exits ... SP integral derivatives will be done elsewhere.
 Leave Link  702 at Tue Nov 21 11:50:23 2023, MaxMem=   104857600 cpu:               0.6 elap:               0.3
 (Enter /home/sekinelabo/g16/l703.exe)
 Integral derivatives from FoFJK, PRISM(SPDF).
 Compute integral first derivatives, UseDBF=F ICtDFT=           0.
 Calling FoFJK, ICntrl=      2127 FMM=F ISym2X=0 I1Cent= 0 IOpClX= 1 NMat=1 NMatS=1 NMatT=0.
 FoFJK:  IHMeth= 1 ICntrl=    2127 DoSepK=F KAlg= 0 I1Cent=           0 FoldK=F
 IRaf=         0 NMat=       1 IRICut=       1 DoRegI=T DoRafI=F ISym2E= 0 IDoP0=0 IntGTp=1.
 FoFCou: FMM=F IPFlag=           0 FMFlag=      100000 FMFlg1=         800
         NFxFlg=           0 DoJE=F BraDBF=F KetDBF=F FulRan=T
         wScrn=  0.000000 ICntrl=      2127 IOpCl=  1 I1Cent=           0 NGrid=           0
         NMat0=    1 NMatS0=      1 NMatT0=    0 NMatD0=    1 NMtDS0=    0 NMtDT0=    0
 Symmetry not used in FoFCou.
 Leave Link  703 at Tue Nov 21 11:50:35 2023, MaxMem=   104857600 cpu:              38.2 elap:              11.2
 (Enter /home/sekinelabo/g16/l716.exe)
 Dipole        =-9.03330594D-01 6.83628795D-02 2.29017146D-02
 ***** Axes restored to original set *****
 -------------------------------------------------------------------
 Center     Atomic                   Forces (Hartrees/Bohr)
 Number     Number              X              Y              Z
 -------------------------------------------------------------------
      1       11          -0.002622475   -0.000321427    0.000751163
      2       11           0.004640055   -0.001276096   -0.001600261
      3       11           0.000231410    0.001094295   -0.002293517
      4       11          -0.003453159    0.000098909    0.002691535
      5       11           0.006410790    0.000863147    0.004758393
      6       11          -0.003101342   -0.000171625   -0.006788553
      7       11          -0.002105280   -0.000287203    0.002481241
 -------------------------------------------------------------------
 Cartesian Forces:  Max     0.006788553 RMS     0.003006683
 Z-matrix is all fixed cartesians, so copy forces.
 Force constants in Cartesian coordinates: 
                1             2             3             4             5 
      1  0.155017D-01
      2  0.852119D-02  0.166161D-01
      3 -0.112250D-01 -0.110139D-01  0.101944D-01
      4 -0.188737D-01 -0.503829D-02  0.114755D-01  0.380237D-01
      5 -0.111080D-01 -0.139447D-01  0.112055D-01 -0.296263D-02  0.322317D-01
      6  0.139532D-01  0.816042D-02 -0.104369D-01 -0.191680D-01 -0.125566D-01
      7  0.339272D-02 -0.346612D-02 -0.209255D-03 -0.180048D-01  0.149311D-01
      8  0.260330D-02 -0.265811D-02 -0.158869D-03  0.499619D-02 -0.205533D-01
      9 -0.270886D-02  0.286919D-02  0.281019D-03  0.886728D-02  0.223384D-02
     10 -0.207368D-04 -0.167723D-04 -0.412394D-04 -0.111881D-02 -0.839464D-03
     11 -0.164467D-04 -0.133024D-04 -0.327077D-04  0.297777D-02  0.224491D-02
     12 -0.193751D-04 -0.156709D-04 -0.385314D-04 -0.114875D-02 -0.862210D-03
     13  0.000000D+00  0.000000D+00  0.000000D+00 -0.264086D-04 -0.209451D-04
     14  0.000000D+00  0.000000D+00  0.000000D+00  0.269609D-04  0.213832D-04
     15  0.000000D+00  0.000000D+00  0.000000D+00 -0.259561D-04 -0.205862D-04
     16  0.000000D+00  0.000000D+00  0.000000D+00  0.000000D+00  0.000000D+00
     17  0.000000D+00  0.000000D+00  0.000000D+00  0.000000D+00  0.000000D+00
     18  0.000000D+00  0.000000D+00  0.000000D+00  0.000000D+00  0.000000D+00
     19  0.000000D+00  0.000000D+00  0.000000D+00  0.000000D+00  0.000000D+00
     20  0.000000D+00  0.000000D+00  0.000000D+00  0.000000D+00  0.000000D+00
     21  0.000000D+00  0.000000D+00  0.000000D+00  0.000000D+00  0.000000D+00
                6             7             8             9            10 
      6  0.173628D-01
      7  0.306875D-02  0.324743D-01
      8  0.943410D-02 -0.856860D-02  0.361237D-01
      9 -0.911142D-02 -0.190691D-01 -0.961719D-02  0.313591D-01
     10  0.217077D-02 -0.164423D-01  0.373794D-02  0.141934D-01  0.292214D-01
     11 -0.506316D-02 -0.373372D-02 -0.145868D-01  0.375881D-02  0.636478D-02
     12  0.220974D-02  0.137203D-01 -0.424821D-02 -0.247845D-01 -0.126246D-01
     13 -0.246745D-04 -0.138833D-02 -0.280107D-02 -0.125168D-02 -0.111107D-01
     14  0.251905D-04  0.816667D-03  0.169562D-02  0.735005D-03 -0.577552D-02
     15 -0.242517D-04  0.244713D-02  0.463320D-02  0.221441D-02 -0.469884D-02
     16  0.000000D+00 -0.315776D-04  0.322380D-04 -0.310365D-04 -0.531943D-03
     17  0.000000D+00  0.207041D-04 -0.211371D-04  0.203493D-04 -0.331828D-02
     18  0.000000D+00  0.421511D-04 -0.430327D-04  0.414289D-04  0.993017D-03
     19  0.000000D+00  0.000000D+00  0.000000D+00  0.000000D+00  0.308996D-05
     20  0.000000D+00  0.000000D+00  0.000000D+00  0.000000D+00 -0.152679D-03
     21  0.000000D+00  0.000000D+00  0.000000D+00  0.000000D+00  0.750011D-05
               11            12            13            14            15 
     11  0.295639D-01
     12  0.728696D-02  0.322890D-01
     13 -0.619519D-02  0.991285D-03  0.409280D-01
     14 -0.208931D-01  0.214400D-02  0.817130D-02  0.298443D-01
     15 -0.483046D-02 -0.112809D-01  0.156406D-01 -0.517218D-02  0.304322D-01
     16  0.604836D-03 -0.914770D-03 -0.249690D-01 -0.340561D-02 -0.181071D-01
     17  0.358424D-02 -0.450868D-02  0.810553D-03 -0.105368D-01  0.542885D-02
     18 -0.111453D-02  0.161525D-02 -0.121784D-01  0.211025D-02 -0.257310D-01
     19 -0.202595D-05 -0.412460D-05 -0.343358D-02  0.166196D-03  0.474418D-02
     20  0.100105D-03  0.203803D-03  0.353423D-04 -0.131455D-03 -0.388211D-04
     21 -0.491750D-05 -0.100115D-04 -0.317711D-02  0.157727D-03  0.438950D-02
               16            17            18            19            20 
     16  0.444671D-01
     17  0.233344D-02  0.722046D-02
     18  0.299887D-03  0.102403D-03  0.532348D-01
     19 -0.189345D-01  0.153584D-03  0.108434D-01  0.223650D-01
     20  0.435091D-03 -0.246744D-03 -0.105510D-02 -0.317754D-03  0.278094D-03
     21  0.187530D-01 -0.104292D-02 -0.291605D-01 -0.155834D-01  0.890115D-03
               21 
     21  0.247810D-01
 Leave Link  716 at Tue Nov 21 11:50:35 2023, MaxMem=   104857600 cpu:               0.7 elap:               0.2
 (Enter /home/sekinelabo/g16/l103.exe)

 GradGradGradGradGradGradGradGradGradGradGradGradGradGradGradGradGradGrad
 Berny optimization.
 Search for a local minimum.
 Step number   1 out of a maximum of    2
 All quantities printed in internal units (Hartrees-Bohrs-Radians)
 Second derivative matrix not updated -- first step.
 ITU=  0
     Eigenvalues ---    0.00005   0.00012   0.00028   0.00095   0.00643
     Eigenvalues ---    0.00801   0.02329   0.02816   0.03978   0.05047
     Eigenvalues ---    0.06166   0.08162   0.08531   0.09321   0.09517
 Eigenvalue     1 is   4.71D-05 Eigenvector:
                          X1        X6        Y6        Z1        Y4
   1                    0.59754  -0.33665   0.33529   0.31292  -0.30281
                          Z5        X5        X2        X7        Z7
   1                   -0.24689  -0.18122   0.17738  -0.14768   0.11679
 Quadratic step=8.868D+00 exceeds max=3.000D-01 adjusted using Lamda=-4.452D-03.
 Angle between NR and scaled steps=  45.59 degrees.
 Angle between quadratic step and forces=  50.17 degrees.
 Linear search not attempted -- first point.
 B after Tr=     0.000000    0.000000   -0.000000
         Rot=    1.000000   -0.000000   -0.000000    0.000000 Ang=   0.00 deg.
 Variable       Old X    -DE/DX   Delta X   Delta X   Delta X     New X
                                 (Linear)    (Quad)   (Total)
    X1       17.55899  -0.00262   0.00000  -0.14806  -0.14806  17.41094
    Y1        0.57100  -0.00032   0.00000   0.00098   0.00098   0.57198
    Z1        3.42571   0.00075   0.00000  -0.07738  -0.07738   3.34833
    X2       20.92305   0.00464   0.00000   0.09311   0.09311  21.01616
    Y2        4.05138  -0.00128   0.00000  -0.05437  -0.05437   3.99701
    Z2        0.31865  -0.00160   0.00000   0.01844   0.01844   0.33709
    X3       17.25619   0.00023   0.00000   0.05504   0.05504  17.31123
    Y3        8.75727   0.00109   0.00000   0.02159   0.02159   8.77886
    Z3        0.24858  -0.00229   0.00000  -0.04261  -0.04261   0.20597
    X4       13.28468  -0.00345   0.00000  -0.01440  -0.01440  13.27028
    Y4        8.86847   0.00010   0.00000   0.08718   0.08718   8.95565
    Z4        4.40482   0.00269   0.00000   0.02896   0.02896   4.43378
    X5        9.19380   0.00641   0.00000   0.08766   0.08766   9.28147
    Y5        4.14470   0.00086   0.00000   0.05868   0.05868   4.20337
    Z5        3.66038   0.00476   0.00000   0.10586   0.10586   3.76624
    X6        4.65976  -0.00310   0.00000  -0.00281  -0.00281   4.65696
    Y6        3.89217  -0.00017   0.00000  -0.03580  -0.03580   3.85637
    Z6        0.38773  -0.00679   0.00000  -0.03846  -0.03846   0.34928
    X7        0.85542  -0.00211   0.00000  -0.07055  -0.07055   0.78487
    Y7        4.01722  -0.00029   0.00000  -0.07825  -0.07825   3.93897
    Z7        4.50057   0.00248   0.00000   0.00519   0.00519   4.50576
         Item               Value     Threshold  Converged?
 Maximum Force            0.006789     0.000450     NO 
 RMS     Force            0.003007     0.000300     NO 
 Maximum Displacement     0.148056     0.001800     NO 
 RMS     Displacement     0.065489     0.001200     NO 
 Predicted change in Energy=-1.525513D-03
 GradGradGradGradGradGradGradGradGradGradGradGradGradGradGradGradGradGrad

 Leave Link  103 at Tue Nov 21 11:50:35 2023, MaxMem=   104857600 cpu:               2.7 elap:               0.6
 (Enter /home/sekinelabo/g16/l9999.exe)
 1\1\GINC-SEKINELABO-XA7R-R37\Force\UB3LYP\6-311+G(d)\Na7(2)\SEKINELABO
 \21-Nov-2023\0\\#P B3LYP/6-311+g(d) force\\DPGEN\\0,2\Na,9.29182,0.302
 159,1.81281\Na,11.072,2.1439,0.16862\Na,9.13158,4.63415,0.131543\Na,7.
 02995,4.69299,2.33093\Na,4.86515,2.19328,1.93699\Na,2.46584,2.05965,0.
 205179\Na,0.45267,2.12582,2.3816\\Version=ES64L-G16RevB.01\State=2-A\H
 F=-1136.1037635\S2=0.79483\S2-1=0.\S2A=0.750978\RMSD=8.390e-09\RMSF=3.
 007e-03\Dipole=-0.8953831,-0.1134178,0.0814228\Quadrupole=2.5785446,-4
 .8620011,2.2834565,1.7464934,-3.4869226,-1.1235129\PG=C01 [X(Na7)]\\@


 WE HAVE LEARNED THAT NOTHING IS SIMPLE AND
 RATIONAL EXCEPT WHAT WE OURSELVES HAVE INVENTED;
 THAT GOD THINKS IN TERMS NEITHER OF EUCLID OR RIEMANN; THAT SCIENCE HAS "EXPLAINED" NOTHING;
 THAT THE MORE WE KNOW THE MORE FANTASTIC THE WORLD BECOMES
 AND THE PROFOUNDER THE SURROUNDING DARKNESS.
   --  ALDOUS HUXLEY
 Job cpu time:       0 days  0 hours 12 minutes 55.7 seconds.
 Elapsed time:       0 days  0 hours 10 minutes 17.8 seconds.
 File lengths (MBytes):  RWF=     46 Int=      0 D2E=      0 Chk=      4 Scr=      1
 Normal termination of Gaussian 16 at Tue Nov 21 11:50:36 2023.
