LAMMPS (2 Aug 2023 - Update 1)
Lattice spacing in x,y,z = 4 4 4
Created orthogonal box = (0 0 0) to (40 40 40)
  1 by 1 by 1 MPI processor grid
Created 4 atoms
  using lattice units in orthogonal box = (0 0 0) to (40 40 40)
  create_atoms CPU = 0.000 seconds
Summary of lammps deepmd module ...
  >>> Info of deepmd-kit:
  installed to:       
  source:             v2.2.5
  source branch:       master
  source commit:      477b7856
  source commit at:   2023-09-27 09:35:45 +0800
  surpport model ver.:1.1 
  build variant:      cpu
  build with tf inc:  /home/sekinelabo/.pyenv/versions/3.11.4/lib/python3.11/site-packages/tensorflow/include;/home/sekinelabo/.pyenv/versions/3.11.4/lib/python3.11/site-packages/tensorflow/include
  build with tf lib:  /home/sekinelabo/.pyenv/versions/3.11.4/lib/python3.11/site-packages/tensorflow/libtensorflow_cc.so.2
  set tf intra_op_parallelism_threads: 0
  set tf inter_op_parallelism_threads: 0
  >>> Info of lammps module:
  use deepmd-kit at:  
  source:             v2.2.5
  source branch:      master
  source commit:      477b7856
  source commit at:   2023-09-27 09:35:45 +0800
  build float prec:   double
  build with tf inc:  /home/sekinelabo/.pyenv/versions/3.11.4/lib/python3.11/site-packages/tensorflow/include;/home/sekinelabo/.pyenv/versions/3.11.4/lib/python3.11/site-packages/tensorflow/include
  build with tf lib:  /home/sekinelabo/.pyenv/versions/3.11.4/lib/python3.11/site-packages/tensorflow/libtensorflow_cc.so.2
INVALID_ARGUMENT: Tensor spin_attr/ntypes_spin:0, specified in either feed_devices or fetch_devices was not found in the Graph
  >>> Info of model(s):
  using   1 model(s): graph-compress.pb 
  rcut in model:      6
  ntypes in model:    1

CITE-CITE-CITE-CITE-CITE-CITE-CITE-CITE-CITE-CITE-CITE-CITE-CITE

Your simulation uses code contributions which should be cited:
- USER-DEEPMD package:
The log file lists these citations in BibTeX format.

CITE-CITE-CITE-CITE-CITE-CITE-CITE-CITE-CITE-CITE-CITE-CITE-CITE

Generated 0 of 0 mixed pair_coeff terms from geometric mixing rule
Neighbor list info ...
  update: every = 1 steps, delay = 0 steps, check = yes
  max neighbors/atom: 2000, page size: 100000
  master list distance cutoff = 8
  ghost atom cutoff = 8
  binsize = 4, bins = 10 10 10
  1 neighbor lists, perpetual/occasional/extra = 1 0 0
  (1) pair deepmd, perpetual
      attributes: full, newton on
      pair build: full/bin/atomonly
      stencil: full/bin/3d
      bin: standard
Setting up cg style minimization ...
  Unit style    : metal
  Current step  : 0
Per MPI rank memory allocation (min/avg/max) = 4.204 | 4.204 | 4.204 Mbytes
   Step          Temp          E_pair         E_mol          TotEng         Press     
         0   0             -17663.478      0             -17663.478      0            
         1   0             -17663.478      0             -17663.478      0            
Loop time of 0.00105124 on 1 procs for 1 steps with 4 atoms

145.0% CPU use with 1 MPI tasks x no OpenMP threads

Minimization stats:
  Stopping criterion = search direction is not downhill
  Energy initial, next-to-last, final = 
     -17663.4778538427  -17663.4778538427  -17663.4778538427
  Force two-norm initial, final = 0 0
  Force max component initial, final = 0 0
  Final line search alpha, max atom move = 0 0
  Iterations, force evaluations = 1 0

MPI task timing breakdown:
Section |  min time  |  avg time  |  max time  |%varavg| %total
---------------------------------------------------------------
Pair    | 0.0010364  | 0.0010364  | 0.0010364  |   0.0 | 98.59
Neigh   | 0          | 0          | 0          |   0.0 |  0.00
Comm    | 9.11e-07   | 9.11e-07   | 9.11e-07   |   0.0 |  0.09
Output  | 0          | 0          | 0          |   0.0 |  0.00
Modify  | 0          | 0          | 0          |   0.0 |  0.00
Other   |            | 1.393e-05  |            |       |  1.32

Nlocal:              4 ave           4 max           4 min
Histogram: 1 0 0 0 0 0 0 0 0 0
Nghost:             14 ave          14 max          14 min
Histogram: 1 0 0 0 0 0 0 0 0 0
Neighs:              0 ave           0 max           0 min
Histogram: 1 0 0 0 0 0 0 0 0 0
FullNghs:            0 ave           0 max           0 min
Histogram: 1 0 0 0 0 0 0 0 0 0

Total # of neighbors = 0
Ave neighs/atom = 0
Neighbor list builds = 0
Dangerous builds = 0
Total wall time: 0:00:00
