LAMMPS (2 Aug 2023 - Update 1)
units           real
atom_style      atomic
boundary        p p p
box             tilt large

The 'box' command has been removed and will be ignored

pair_style      lj/cut/coul/cut 10.0
bond_style harmonic
ERROR: Bond_style command when no bonds allowed (../input.cpp:1393)
Last command: bond_style harmonic
