 Entering Gaussian System, Link 0=g16
 Initial command:
 /home/sekinelabo/g16/l1.exe "/home/sekinelabo/g16temp/Gau-934290.inp" -scrdir="/home/sekinelabo/g16temp/"
 Entering Link 1 = /home/sekinelabo/g16/l1.exe PID=    934321.
  
 Copyright (c) 1988-2017, Gaussian, Inc.  All Rights Reserved.
  
 This is part of the Gaussian(R) 16 program.  It is based on
 the Gaussian(R) 09 system (copyright 2009, Gaussian, Inc.),
 the Gaussian(R) 03 system (copyright 2003, Gaussian, Inc.),
 the Gaussian(R) 98 system (copyright 1998, Gaussian, Inc.),
 the Gaussian(R) 94 system (copyright 1995, Gaussian, Inc.),
 the Gaussian 92(TM) system (copyright 1992, Gaussian, Inc.),
 the Gaussian 90(TM) system (copyright 1990, Gaussian, Inc.),
 the Gaussian 88(TM) system (copyright 1988, Gaussian, Inc.),
 the Gaussian 86(TM) system (copyright 1986, Carnegie Mellon
 University), and the Gaussian 82(TM) system (copyright 1983,
 Carnegie Mellon University). Gaussian is a federally registered
 trademark of Gaussian, Inc.
  
 This software contains proprietary and confidential information,
 including trade secrets, belonging to Gaussian, Inc.
  
 This software is provided under written license and may be
 used, copied, transmitted, or stored only in accord with that
 written license.
  
 The following legend is applicable only to US Government
 contracts under FAR:
  
                    RESTRICTED RIGHTS LEGEND
  
 Use, reproduction and disclosure by the US Government is
 subject to restrictions as set forth in subparagraphs (a)
 and (c) of the Commercial Computer Software - Restricted
 Rights clause in FAR 52.227-19.
  
 Gaussian, Inc.
 340 Quinnipiac St., Bldg. 40, Wallingford CT 06492
  
  
 ---------------------------------------------------------------
 Warning -- This program may not be used in any manner that
 competes with the business of Gaussian, Inc. or will provide
 assistance to any competitor of Gaussian, Inc.  The licensee
 of this program is prohibited from giving any competitor of
 Gaussian, Inc. access to this program.  By using this program,
 the user acknowledges that Gaussian, Inc. is engaged in the
 business of creating and licensing software in the field of
 computational chemistry and represents and warrants to the
 licensee that it is not a competitor of Gaussian, Inc. and that
 it will not use this program in any manner prohibited above.
 ---------------------------------------------------------------
  

 Cite this work as:
 Gaussian 16, Revision B.01,
 M. J. Frisch, G. W. Trucks, H. B. Schlegel, G. E. Scuseria, 
 M. A. Robb, J. R. Cheeseman, G. Scalmani, V. Barone, 
 G. A. Petersson, H. Nakatsuji, X. Li, M. Caricato, A. V. Marenich, 
 J. Bloino, B. G. Janesko, R. Gomperts, B. Mennucci, H. P. Hratchian, 
 J. V. Ortiz, A. F. Izmaylov, J. L. Sonnenberg, D. Williams-Young, 
 F. Ding, F. Lipparini, F. Egidi, J. Goings, B. Peng, A. Petrone, 
 T. Henderson, D. Ranasinghe, V. G. Zakrzewski, J. Gao, N. Rega, 
 G. Zheng, W. Liang, M. Hada, M. Ehara, K. Toyota, R. Fukuda, 
 J. Hasegawa, M. Ishida, T. Nakajima, Y. Honda, O. Kitao, H. Nakai, 
 T. Vreven, K. Throssell, J. A. Montgomery, Jr., J. E. Peralta, 
 F. Ogliaro, M. J. Bearpark, J. J. Heyd, E. N. Brothers, K. N. Kudin, 
 V. N. Staroverov, T. A. Keith, R. Kobayashi, J. Normand, 
 K. Raghavachari, A. P. Rendell, J. C. Burant, S. S. Iyengar, 
 J. Tomasi, M. Cossi, J. M. Millam, M. Klene, C. Adamo, R. Cammi, 
 J. W. Ochterski, R. L. Martin, K. Morokuma, O. Farkas, 
 J. B. Foresman, and D. J. Fox, Gaussian, Inc., Wallingford CT, 2016.
 
 ******************************************
 Gaussian 16:  ES64L-G16RevB.01 20-Dec-2017
                21-Nov-2023 
 ******************************************
 %nprocshared=14
 Will use up to   14 processors via shared memory.
 -------------------------
 #P B3LYP/6-311+g(d) force
 -------------------------
 1/10=7,30=1,38=1/1,3;
 2/12=2,17=6,18=5,40=1/2;
 3/5=4,6=6,7=11,11=2,25=1,30=1,71=1,74=-5/1,2,3;
 4//1;
 5/5=2,38=5/2;
 6/7=2,8=2,9=2,10=2,28=1/1;
 7/29=1/1,2,3,16;
 1/10=7,30=1/3;
 99//99;
 Leave Link    1 at Tue Nov 21 11:40:17 2023, MaxMem=           0 cpu:               0.4 elap:               0.4
 (Enter /home/sekinelabo/g16/l101.exe)
 -----
 DPGEN
 -----
 Symbolic Z-matrix:
 Charge =  0 Multiplicity = 2
 Na                    9.73747   28.6709   28.079 
 Na                    9.41819   1.52786   28.8722 
 Na                    8.99426   4.81558   29.8683 
 Na                    7.00208   6.74053   1.23198 
 Na                    4.88933   4.56804   2.55401 
 Na                    2.77688   1.85389   3.13039 
 Na                    1.4908    29.97516   5.23181 
 
 ITRead=  0  0  0  0  0  0  0
 MicOpt= -1 -1 -1 -1 -1 -1 -1
 NAtoms=      7 NQM=        7 NQMF=       0 NMMI=      0 NMMIF=      0
                NMic=       0 NMicF=      0.
                    Isotopes and Nuclear Properties:
 (Nuclear quadrupole moments (NQMom) in fm**2, nuclear magnetic moments (NMagM)
  in nuclear magnetons)

  Atom         1           2           3           4           5           6           7
 IAtWgt=          23          23          23          23          23          23          23
 AtmWgt=  22.9897697  22.9897697  22.9897697  22.9897697  22.9897697  22.9897697  22.9897697
 NucSpn=           3           3           3           3           3           3           3
 AtZEff=  -0.0000000  -0.0000000  -0.0000000  -0.0000000  -0.0000000  -0.0000000  -0.0000000
 NQMom=   10.4000000  10.4000000  10.4000000  10.4000000  10.4000000  10.4000000  10.4000000
 NMagM=    2.2175200   2.2175200   2.2175200   2.2175200   2.2175200   2.2175200   2.2175200
 AtZNuc=  11.0000000  11.0000000  11.0000000  11.0000000  11.0000000  11.0000000  11.0000000
 Leave Link  101 at Tue Nov 21 11:40:20 2023, MaxMem=   104857600 cpu:               2.6 elap:               2.7
 (Enter /home/sekinelabo/g16/l103.exe)

 GradGradGradGradGradGradGradGradGradGradGradGradGradGradGradGradGradGrad
 Berny optimization.
 Initialization pass.
 Trust Radius=3.00D-01 FncErr=1.00D-07 GrdErr=1.00D-07 EigMax=2.50D+02 EigMin=1.00D-04
 Number of steps in this run=      2 maximum allowed number of steps=      2.
 GradGradGradGradGradGradGradGradGradGradGradGradGradGradGradGradGradGrad

 Leave Link  103 at Tue Nov 21 11:40:21 2023, MaxMem=   104857600 cpu:               0.5 elap:               0.5
 (Enter /home/sekinelabo/g16/l202.exe)
                          Input orientation:                          
 ---------------------------------------------------------------------
 Center     Atomic      Atomic             Coordinates (Angstroms)
 Number     Number       Type             X           Y           Z
 ---------------------------------------------------------------------
      1         11           0        9.737470   28.670900   28.079000
      2         11           0        9.418190    1.527860   28.872200
      3         11           0        8.994260    4.815580   29.868300
      4         11           0        7.002080    6.740530    1.231980
      5         11           0        4.889330    4.568040    2.554010
      6         11           0        2.776880    1.853890    3.130390
      7         11           0        1.490800   29.975156    5.231810
 ---------------------------------------------------------------------
                    Distance matrix (angstroms):
                    1          2          3          4          5
     1  Na   0.000000
     2  Na  27.156504   0.000000
     3  Na  23.933872   3.461363   0.000000
     4  Na  34.773351  28.231034  28.770002   0.000000
     5  Na  35.439772  26.877507  27.622132   3.306235   0.000000
     6  Na  37.283173  26.586727  27.610564   6.733166   3.487301
     7  Na  24.324941  37.828035  36.003650  24.211995  25.772896
                    6          7
     6  Na   0.000000
     7  Na  28.228985   0.000000
 Stoichiometry    Na7(2)
 Framework group  C1[X(Na7)]
 Deg. of freedom    15
 Full point group                 C1      NOp   1
 Largest Abelian subgroup         C1      NOp   1
 Largest concise Abelian subgroup C1      NOp   1
                         Standard orientation:                         
 ---------------------------------------------------------------------
 Center     Atomic      Atomic             Coordinates (Angstroms)
 Number     Number       Type             X           Y           Z
 ---------------------------------------------------------------------
      1         11           0      -17.842063   13.842782    1.570515
      2         11           0      -12.551412  -12.719509   -0.411768
      3         11           0      -14.155905   -9.682426   -0.839277
      4         11           0       13.227373   -1.712763    2.949338
      5         11           0       12.820106   -3.895960    0.500057
      6         11           0       13.247144   -6.452924   -1.832504
      7         11           0        5.254756   20.620800   -1.936361
 ---------------------------------------------------------------------
 Rotational constants (GHZ):           0.0231027           0.0177555           0.0102207
 Leave Link  202 at Tue Nov 21 11:40:22 2023, MaxMem=   104857600 cpu:               0.9 elap:               1.0
 (Enter /home/sekinelabo/g16/l301.exe)
 Standard basis: 6-311+G(d) (5D, 7F)
 Ernie: Thresh=  0.10000D-02 Tol=  0.10000D-05 Strict=F.
 There are   217 symmetry adapted cartesian basis functions of A   symmetry.
 There are   210 symmetry adapted basis functions of A   symmetry.
   210 basis functions,   350 primitive gaussians,   217 cartesian basis functions
    39 alpha electrons       38 beta electrons
       nuclear repulsion energy       103.5567239312 Hartrees.
 IExCor=  402 DFT=T Ex+Corr=B3LYP ExCW=0 ScaHFX=  0.200000
 ScaDFX=  0.800000  0.720000  1.000000  0.810000 ScalE2=  1.000000  1.000000
 IRadAn=      5 IRanWt=     -1 IRanGd=            0 ICorTp=0 IEmpDi=  4
 NAtoms=    7 NActive=    7 NUniq=    7 SFac= 1.00D+00 NAtFMM=   60 NAOKFM=F Big=F
 Integral buffers will be    131072 words long.
 Raffenetti 2 integral format.
 Two-electron integral symmetry is turned on.
 Leave Link  301 at Tue Nov 21 11:40:22 2023, MaxMem=   104857600 cpu:               0.7 elap:               0.8
 (Enter /home/sekinelabo/g16/l302.exe)
 NPDir=0 NMtPBC=     1 NCelOv=     1 NCel=       1 NClECP=     1 NCelD=      1
         NCelK=      1 NCelE2=     1 NClLst=     1 CellRange=     0.0.
 One-electron integrals computed using PRISM.
 One-electron integral symmetry used in STVInt
 NBasis=   210 RedAO= T EigKep=  1.64D-05  NBF=   210
 NBsUse=   210 1.00D-06 EigRej= -1.00D+00 NBFU=   210
 Precomputing XC quadrature grid using
 IXCGrd= 4 IRadAn=           5 IRanWt=          -1 IRanGd=           0 AccXCQ= 0.00D+00.
 Generated NRdTot=       0 NPtTot=           0 NUsed=           0 NTot=          32
 NSgBfM=   143   143   143   143   143 MxSgAt=     7 MxSgA2=     7.
 Leave Link  302 at Tue Nov 21 11:40:55 2023, MaxMem=   104857600 cpu:              29.7 elap:              32.0
 (Enter /home/sekinelabo/g16/l303.exe)
 DipDrv:  MaxL=1.
 Leave Link  303 at Tue Nov 21 11:40:57 2023, MaxMem=   104857600 cpu:               2.4 elap:               2.7
 (Enter /home/sekinelabo/g16/l401.exe)
 ExpMin= 7.60D-03 ExpMax= 3.62D+04 ExpMxC= 1.21D+03 IAcc=3 IRadAn=         5 AccDes= 0.00D+00
 Harris functional with IExCor=  402 and IRadAn=       5 diagonalized for initial guess.
 HarFok:  IExCor=  402 AccDes= 0.00D+00 IRadAn=         5 IDoV= 1 UseB2=F ITyADJ=14
 ICtDFT=  3500011 ScaDFX=  1.000000  1.000000  1.000000  1.000000
 FoFCou: FMM=F IPFlag=           0 FMFlag=      100000 FMFlg1=           0
         NFxFlg=           0 DoJE=T BraDBF=F KetDBF=T FulRan=T
         wScrn=  0.000000 ICntrl=       500 IOpCl=  0 I1Cent=   200000004 NGrid=           0
         NMat0=    1 NMatS0=      1 NMatT0=    0 NMatD0=    1 NMtDS0=    0 NMtDT0=    0
 Petite list used in FoFCou.
 Harris En= -1135.83352300288    
 JPrj=0 DoOrth=F DoCkMO=F.
 Initial guess <Sx>= 0.0000 <Sy>= 0.0000 <Sz>= 0.5000 <S**2>= 0.7500 S= 0.5000
 Leave Link  401 at Tue Nov 21 11:41:14 2023, MaxMem=   104857600 cpu:              16.0 elap:              17.1
 (Enter /home/sekinelabo/g16/l502.exe)
 Integral symmetry usage will be decided dynamically.
 UHF open shell SCF:
 Using DIIS extrapolation, IDIIS=  1040.
 NGot=   104857600 LenX=   104758426 LenY=   104710896
 Requested convergence on RMS density matrix=1.00D-08 within 128 cycles.
 Requested convergence on MAX density matrix=1.00D-06.
 Requested convergence on             energy=1.00D-06.
 No special actions if energy rises.
 Fock matrices will be formed incrementally for  20 cycles.

 Cycle   1  Pass 1  IDiag  1:
 FoFJK:  IHMeth= 1 ICntrl=       0 DoSepK=F KAlg= 0 I1Cent=           0 FoldK=F
 IRaf= 430000000 NMat=       1 IRICut=       1 DoRegI=T DoRafI=F ISym2E= 0 IDoP0=0 IntGTp=1.
 FoFCou: FMM=F IPFlag=           0 FMFlag=      100000 FMFlg1=           0
         NFxFlg=           0 DoJE=F BraDBF=F KetDBF=F FulRan=T
         wScrn=  0.000000 ICntrl=         0 IOpCl=  1 I1Cent=           0 NGrid=           0
         NMat0=    1 NMatS0=      1 NMatT0=    0 NMatD0=    1 NMtDS0=    0 NMtDT0=    0
 Symmetry not used in FoFCou.
 E= -1135.91370309272    
 DIIS: error= 2.18D-02 at cycle   1 NSaved=   1.
 NSaved= 1 IEnMin= 1 EnMin= -1135.91370309272     IErMin= 1 ErrMin= 2.18D-02
 ErrMax= 2.18D-02  0.00D+00 EMaxC= 1.00D-01 BMatC= 1.92D-01 BMatP= 1.92D-01
 IDIUse=3 WtCom= 7.82D-01 WtEn= 2.18D-01
 Coeff-Com:  0.100D+01
 Coeff-En:   0.100D+01
 Coeff:      0.100D+01
 Gap=     0.004 Goal=   None    Shift=    0.000
 Gap=    -0.180 Goal=   None    Shift=    0.000
 GapD=   -0.180 DampG=0.250 DampE=0.500 DampFc=0.2500 IDamp=-1.
 Damping current iteration by 2.50D-01
 RMSDP=8.06D-03 MaxDP=9.45D-01              OVMax= 1.00D+00

 Cycle   2  Pass 1  IDiag  1:
 RMSU=  2.00D-03    CP:  9.86D-01
 E= -1135.97967311135     Delta-E=       -0.065970018632 Rises=F Damp=T
 DIIS: error= 1.36D-02 at cycle   2 NSaved=   2.
 NSaved= 2 IEnMin= 2 EnMin= -1135.97967311135     IErMin= 2 ErrMin= 1.36D-02
 ErrMax= 1.36D-02  0.00D+00 EMaxC= 1.00D-01 BMatC= 7.06D-02 BMatP= 1.92D-01
 IDIUse=3 WtCom= 8.64D-01 WtEn= 1.36D-01
 Coeff-Com: -0.900D+00 0.190D+01
 Coeff-En:   0.193D+00 0.807D+00
 Coeff:     -0.751D+00 0.175D+01
 Gap=     0.024 Goal=   None    Shift=    0.000
 Gap=     0.196 Goal=   None    Shift=    0.000
 RMSDP=1.02D-02 MaxDP=5.36D-01 DE=-6.60D-02 OVMax= 1.00D+00

 Cycle   3  Pass 1  IDiag  1:
 RMSU=  9.60D-03    CP:  1.01D+00 -7.18D-01
 E= -1135.10460927211     Delta-E=        0.875063839238 Rises=F Damp=F
 DIIS: error= 2.70D-02 at cycle   3 NSaved=   3.
 NSaved= 3 IEnMin= 2 EnMin= -1135.97967311135     IErMin= 2 ErrMin= 1.36D-02
 ErrMax= 2.70D-02  0.00D+00 EMaxC= 1.00D-01 BMatC= 1.39D-01 BMatP= 7.06D-02
 IDIUse=2 WtCom= 0.00D+00 WtEn= 1.00D+00
 Rare condition: small coef for last iteration:  0.000D+00
 Coeff-En:   0.000D+00 0.000D+00 0.100D+01
 Coeff:      0.000D+00 0.000D+00 0.100D+01
 Gap=     0.632 Goal=   None    Shift=    0.000
 Gap=    -0.530 Goal=   None    Shift=    0.000
 RMSDP=1.67D-02 MaxDP=1.43D+00 DE= 8.75D-01 OVMax= 1.00D+00

 Cycle   4  Pass 1  IDiag  1:
 RMSU=  8.53D-03    CP:  9.60D-01  3.00D+00 -2.13D-02
 E= -1134.96769071198     Delta-E=        0.136918560135 Rises=F Damp=F
 DIIS: error= 2.06D-02 at cycle   4 NSaved=   4.
 NSaved= 4 IEnMin= 2 EnMin= -1135.97967311135     IErMin= 2 ErrMin= 1.36D-02
 ErrMax= 2.06D-02  0.00D+00 EMaxC= 1.00D-01 BMatC= 2.83D-01 BMatP= 7.06D-02
 IDIUse=2 WtCom= 0.00D+00 WtEn= 1.00D+00
 EnCoef did   100 forward-backward iterations
 Coeff-En:   0.194D+00 0.806D+00 0.189D-03 0.174D-03
 Coeff:      0.194D+00 0.806D+00 0.189D-03 0.174D-03
 Gap=     0.044 Goal=   None    Shift=    0.000
 Gap=     0.034 Goal=   None    Shift=    0.000
 RMSDP=1.07D-02 MaxDP=1.43D+00 DE= 1.37D-01 OVMax= 1.00D+00

 Cycle   5  Pass 1  IDiag  1:
 RMSU=  3.36D-03    CP:  9.68D-01  1.82D+00 -5.60D-03 -4.19D-02
 E= -1135.89071269979     Delta-E=       -0.923021987809 Rises=F Damp=F
 DIIS: error= 7.98D-03 at cycle   5 NSaved=   5.
 NSaved= 5 IEnMin= 2 EnMin= -1135.97967311135     IErMin= 5 ErrMin= 7.98D-03
 ErrMax= 7.98D-03  0.00D+00 EMaxC= 1.00D-01 BMatC= 5.78D-02 BMatP= 7.06D-02
 IDIUse=3 WtCom= 9.20D-01 WtEn= 7.98D-02
 EnCoef did   100 forward-backward iterations
 Coeff-Com: -0.489D-01 0.459D+00 0.159D+00 0.330D-01 0.398D+00
 Coeff-En:   0.520D+00 0.351D-02 0.267D-02 0.000D+00 0.474D+00
 Coeff:     -0.343D-02 0.423D+00 0.146D+00 0.303D-01 0.404D+00
 Gap=     0.031 Goal=   None    Shift=    0.000
 Gap=     0.053 Goal=   None    Shift=    0.000
 RMSDP=4.68D-03 MaxDP=6.20D-01 DE=-9.23D-01 OVMax= 9.78D-01

 Cycle   6  Pass 1  IDiag  1:
 RMSU=  2.64D-03    CP:  9.87D-01  4.73D-01 -9.02D-04 -2.90D-02  1.80D-01
 E= -1135.90721412934     Delta-E=       -0.016501429553 Rises=F Damp=F
 DIIS: error= 5.70D-03 at cycle   6 NSaved=   6.
 NSaved= 6 IEnMin= 2 EnMin= -1135.97967311135     IErMin= 6 ErrMin= 5.70D-03
 ErrMax= 5.70D-03  0.00D+00 EMaxC= 1.00D-01 BMatC= 1.20D-02 BMatP= 5.78D-02
 IDIUse=3 WtCom= 9.43D-01 WtEn= 5.70D-02
 Coeff-Com: -0.126D+00 0.325D+00-0.320D-01 0.589D-02 0.178D+00 0.649D+00
 Coeff-En:   0.000D+00 0.000D+00 0.000D+00 0.000D+00 0.485D+00 0.515D+00
 Coeff:     -0.118D+00 0.306D+00-0.302D-01 0.555D-02 0.195D+00 0.642D+00
 Gap=     0.023 Goal=   None    Shift=    0.000
 Gap=     0.031 Goal=   None    Shift=    0.000
 RMSDP=5.41D-03 MaxDP=8.44D-01 DE=-1.65D-02 OVMax= 1.00D+00

 Cycle   7  Pass 1  IDiag  1:
 RMSU=  1.36D-03    CP:  9.69D-01  2.05D+00  3.48D-03  1.11D-02  1.01D+00
                    CP: -1.65D-01
 E= -1135.87536553221     Delta-E=        0.031848597131 Rises=F Damp=F
 DIIS: error= 8.95D-03 at cycle   7 NSaved=   7.
 NSaved= 7 IEnMin= 2 EnMin= -1135.97967311135     IErMin= 6 ErrMin= 5.70D-03
 ErrMax= 8.95D-03  0.00D+00 EMaxC= 1.00D-01 BMatC= 3.10D-02 BMatP= 1.20D-02
 IDIUse=3 WtCom= 9.43D-01 WtEn= 5.70D-02
 Rare condition: small coef for last iteration:  0.000D+00
 Coeff-Com: -0.436D+00 0.625D+00-0.146D-02-0.420D-01-0.182D+00 0.662D+00
 Coeff-Com:  0.375D+00
 Coeff-En:   0.000D+00 0.000D+00 0.000D+00 0.000D+00 0.102D-01 0.522D+00
 Coeff-En:   0.468D+00
 Coeff:     -0.436D+00 0.625D+00-0.146D-02-0.420D-01-0.182D+00 0.662D+00
 Coeff:      0.375D+00
 Gap=     0.001 Goal=   None    Shift=    0.000
 Gap=     0.032 Goal=   None    Shift=    0.000
 RMSDP=5.30D-04 MaxDP=6.48D-02 DE= 3.18D-02 OVMax= 7.70D-02

 Cycle   8  Pass 1  IDiag  1:
 RMSU=  4.64D-04    CP:  9.69D-01  1.96D+00  4.44D-03  4.57D-03  1.02D+00
                    CP: -1.83D-01  8.77D-01
 E= -1135.88446194931     Delta-E=       -0.009096417100 Rises=F Damp=F
 DIIS: error= 7.83D-03 at cycle   8 NSaved=   8.
 NSaved= 8 IEnMin= 2 EnMin= -1135.97967311135     IErMin= 6 ErrMin= 5.70D-03
 ErrMax= 7.83D-03  0.00D+00 EMaxC= 1.00D-01 BMatC= 2.42D-02 BMatP= 1.20D-02
 IDIUse=3 WtCom= 9.43D-01 WtEn= 5.70D-02
 EnCoef did   100 forward-backward iterations
 Coeff-Com: -0.465D+00 0.661D+00 0.867D-02-0.492D-01-0.230D+00 0.628D+00
 Coeff-Com:  0.904D-01 0.356D+00
 Coeff-En:   0.000D+00 0.000D+00 0.000D+00 0.000D+00 0.129D+00 0.518D+00
 Coeff-En:   0.000D+00 0.353D+00
 Coeff:     -0.438D+00 0.623D+00 0.818D-02-0.464D-01-0.209D+00 0.622D+00
 Coeff:      0.853D-01 0.356D+00
 Gap=    -0.000 Goal=   None    Shift=    0.000
 Gap=     0.033 Goal=   None    Shift=    0.000
 RMSDP=2.89D-03 MaxDP=4.09D-01 DE=-9.10D-03 OVMax= 9.99D-01

 Cycle   9  Pass 1  IDiag  1:
 RMSU=  2.38D-03    CP:  9.75D-01  1.41D+00  2.73D-02  5.19D-03  7.15D-01
                    CP: -4.12D-01  8.43D-01  1.01D+00
 E= -1135.87174072712     Delta-E=        0.012721222194 Rises=F Damp=F
 DIIS: error= 7.29D-03 at cycle   9 NSaved=   9.
 NSaved= 9 IEnMin= 2 EnMin= -1135.97967311135     IErMin= 6 ErrMin= 5.70D-03
 ErrMax= 7.29D-03  0.00D+00 EMaxC= 1.00D-01 BMatC= 2.09D-02 BMatP= 1.20D-02
 IDIUse=3 WtCom= 9.43D-01 WtEn= 5.70D-02
 EnCoef did   100 forward-backward iterations
 Rare condition: small coef for last iteration:  0.417D-15
 Coeff-Com: -0.473D+00 0.670D+00-0.127D-02-0.463D-01-0.226D+00 0.626D+00
 Coeff-Com:  0.122D+00 0.176D+00 0.152D+00
 Coeff-En:   0.000D+00 0.000D+00 0.000D+00 0.000D+00 0.102D+00 0.455D+00
 Coeff-En:   0.000D+00 0.253D+00 0.191D+00
 Coeff:     -0.473D+00 0.670D+00-0.127D-02-0.463D-01-0.226D+00 0.626D+00
 Coeff:      0.122D+00 0.176D+00 0.152D+00
 Gap=    -0.017 Goal=   None    Shift=    0.000
 Gap=     0.034 Goal=   None    Shift=    0.000
 RMSDP=2.97D-03 MaxDP=4.95D-01 DE= 1.27D-02 OVMax= 1.00D+00

 Cycle  10  Pass 1  IDiag  1:
 RMSU=  2.27D-04    CP:  9.69D-01  1.94D+00  1.37D-03 -3.59D-03  1.00D+00
                    CP: -1.09D-01  6.14D-01  1.35D-01 -6.16D-03
 E= -1135.88357573532     Delta-E=       -0.011835008208 Rises=F Damp=F
 DIIS: error= 8.14D-03 at cycle  10 NSaved=  10.
 NSaved=10 IEnMin= 2 EnMin= -1135.97967311135     IErMin= 6 ErrMin= 5.70D-03
 ErrMax= 8.14D-03  0.00D+00 EMaxC= 1.00D-01 BMatC= 2.35D-02 BMatP= 1.20D-02
 IDIUse=3 WtCom= 9.43D-01 WtEn= 5.70D-02
 EnCoef did   100 forward-backward iterations
 Coeff-Com: -0.472D+00 0.668D+00 0.241D-02-0.502D-01-0.242D+00 0.601D+00
 Coeff-Com: -0.331D-01 0.843D-01 0.186D+00 0.255D+00
 Coeff-En:   0.000D+00 0.000D+00 0.000D+00 0.000D+00 0.261D+00 0.515D+00
 Coeff-En:   0.666D-04 0.173D+00 0.881D-02 0.428D-01
 Coeff:     -0.445D+00 0.630D+00 0.228D-02-0.473D-01-0.213D+00 0.596D+00
 Coeff:     -0.312D-01 0.893D-01 0.176D+00 0.242D+00
 Gap=     0.022 Goal=   None    Shift=    0.000
 Gap=     0.033 Goal=   None    Shift=    0.000
 RMSDP=3.30D-04 MaxDP=4.35D-02 DE=-1.18D-02 OVMax= 4.04D-02

 Cycle  11  Pass 1  IDiag  1:
 RMSU=  1.69D-04    CP:  9.69D-01  1.92D+00 -1.32D-03 -1.04D-02  9.93D-01
                    CP: -6.38D-02  4.39D-01  2.18D-01 -1.56D-02  1.09D+00
 E= -1135.88902258592     Delta-E=       -0.005446850600 Rises=F Damp=F
 DIIS: error= 6.66D-03 at cycle  11 NSaved=  11.
 NSaved=11 IEnMin= 2 EnMin= -1135.97967311135     IErMin= 6 ErrMin= 5.70D-03
 ErrMax= 6.66D-03  0.00D+00 EMaxC= 1.00D-01 BMatC= 2.11D-02 BMatP= 1.20D-02
 IDIUse=3 WtCom= 9.43D-01 WtEn= 5.70D-02
 EnCoef did   100 forward-backward iterations
 Coeff-Com: -0.336D+00 0.480D+00-0.129D-02-0.480D-01-0.145D+00 0.532D+00
 Coeff-Com:  0.598D-01-0.475D+00 0.245D+00-0.107D+01 0.176D+01
 Coeff-En:   0.000D+00 0.000D+00 0.000D+00 0.000D+00 0.134D+00 0.516D+00
 Coeff-En:   0.437D-04 0.438D-03 0.578D-02 0.119D-03 0.344D+00
 Coeff:     -0.316D+00 0.453D+00-0.121D-02-0.452D-01-0.129D+00 0.532D+00
 Coeff:      0.564D-01-0.448D+00 0.231D+00-0.101D+01 0.168D+01
 Gap=     0.036 Goal=   None    Shift=    0.000
 Gap=     0.036 Goal=   None    Shift=    0.000
 RMSDP=7.30D-04 MaxDP=1.08D-01 DE=-5.45D-03 OVMax= 3.76D-02

 Cycle  12  Pass 1  IDiag  1:
 RMSU=  1.49D-04    CP:  9.69D-01  1.87D+00 -4.39D-03 -2.02D-02  9.68D-01
                    CP:  4.59D-02  7.76D-02 -4.39D-01 -3.62D-02  1.86D+00
                    CP:  2.08D+00
 E= -1135.89368465699     Delta-E=       -0.004662071070 Rises=F Damp=F
 DIIS: error= 7.32D-03 at cycle  12 NSaved=  12.
 NSaved=12 IEnMin= 2 EnMin= -1135.97967311135     IErMin= 6 ErrMin= 5.70D-03
 ErrMax= 7.32D-03  0.00D+00 EMaxC= 1.00D-01 BMatC= 1.87D-02 BMatP= 1.20D-02
 IDIUse=3 WtCom= 9.43D-01 WtEn= 5.70D-02
 EnCoef did   100 forward-backward iterations
 Coeff-Com: -0.297D+00 0.426D+00-0.346D-02-0.435D-01-0.145D+00 0.507D+00
 Coeff-Com:  0.170D+00 0.590D+00 0.132D+00-0.170D+01-0.537D+00 0.190D+01
 Coeff-En:   0.000D+00 0.000D+00 0.000D+00 0.000D+00 0.352D-03 0.514D+00
 Coeff-En:   0.404D-04 0.404D-03 0.534D-02 0.110D-03 0.339D+00 0.140D+00
 Coeff:     -0.280D+00 0.402D+00-0.326D-02-0.410D-01-0.137D+00 0.507D+00
 Coeff:      0.161D+00 0.556D+00 0.125D+00-0.160D+01-0.488D+00 0.180D+01
 Gap=    -0.001 Goal=   None    Shift=    0.000
 Gap=     0.004 Goal=   None    Shift=    0.000
 RMSDP=3.20D-03 MaxDP=5.96D-01 DE=-4.66D-03 OVMax= 9.99D-01

 Cycle  13  Pass 1  IDiag  1:
 RMSU=  1.95D-03    CP:  9.74D-01  1.22D+00  3.31D-02 -3.63D-02  6.46D-01
                    CP:  5.98D-01  1.91D-01 -2.46D-01  4.21D-01  2.10D+00
                    CP:  2.33D+00  3.00D+00
 E= -1136.06349870967     Delta-E=       -0.169814052676 Rises=F Damp=F
 DIIS: error= 4.80D-03 at cycle  13 NSaved=  13.
 NSaved=13 IEnMin=13 EnMin= -1136.06349870967     IErMin=13 ErrMin= 4.80D-03
 ErrMax= 4.80D-03  0.00D+00 EMaxC= 1.00D-01 BMatC= 2.00D-03 BMatP= 1.20D-02
 IDIUse=3 WtCom= 9.52D-01 WtEn= 4.80D-02
 Coeff-Com: -0.134D+00 0.185D+00-0.385D-03-0.224D-01-0.738D-01 0.273D+00
 Coeff-Com:  0.695D-01 0.801D+00-0.150D+00-0.135D+01-0.459D-01 0.824D+00
 Coeff-Com:  0.623D+00
 Coeff-En:   0.000D+00 0.000D+00 0.000D+00 0.000D+00 0.000D+00 0.000D+00
 Coeff-En:   0.000D+00 0.000D+00 0.000D+00 0.000D+00 0.000D+00 0.000D+00
 Coeff-En:   0.100D+01
 Coeff:     -0.127D+00 0.177D+00-0.366D-03-0.213D-01-0.702D-01 0.260D+00
 Coeff:      0.661D-01 0.763D+00-0.143D+00-0.129D+01-0.437D-01 0.785D+00
 Coeff:      0.642D+00
 Gap=     0.014 Goal=   None    Shift=    0.000
 Gap=     0.045 Goal=   None    Shift=    0.000
 RMSDP=9.57D-04 MaxDP=1.39D-01 DE=-1.70D-01 OVMax= 1.15D-01

 Cycle  14  Pass 1  IDiag  1:
 RMSU=  6.23D-04    CP:  9.73D-01  1.22D+00  2.83D-02 -4.29D-02  6.47D-01
                    CP:  5.55D-01  4.75D-01  7.66D-01  4.80D-01  7.51D-01
                    CP:  1.96D+00  2.62D+00  1.06D+00
 E= -1136.06642103894     Delta-E=       -0.002922329273 Rises=F Damp=F
 DIIS: error= 1.34D-03 at cycle  14 NSaved=  14.
 NSaved=14 IEnMin=14 EnMin= -1136.06642103894     IErMin=14 ErrMin= 1.34D-03
 ErrMax= 1.34D-03  0.00D+00 EMaxC= 1.00D-01 BMatC= 7.06D-04 BMatP= 2.00D-03
 IDIUse=3 WtCom= 9.87D-01 WtEn= 1.34D-02
 Coeff-Com: -0.679D-01 0.940D-01 0.556D-02-0.842D-02-0.345D-01 0.119D+00
 Coeff-Com: -0.456D-01-0.475D-01-0.649D-01-0.703D+00 0.570D+00 0.363D+00
 Coeff-Com:  0.157D+00 0.663D+00
 Coeff-En:   0.000D+00 0.000D+00 0.000D+00 0.000D+00 0.000D+00 0.000D+00
 Coeff-En:   0.000D+00 0.000D+00 0.000D+00 0.000D+00 0.000D+00 0.000D+00
 Coeff-En:   0.000D+00 0.100D+01
 Coeff:     -0.670D-01 0.927D-01 0.549D-02-0.830D-02-0.340D-01 0.118D+00
 Coeff:     -0.450D-01-0.468D-01-0.641D-01-0.694D+00 0.563D+00 0.358D+00
 Coeff:      0.154D+00 0.668D+00
 Gap=     0.035 Goal=   None    Shift=    0.000
 Gap=     0.039 Goal=   None    Shift=    0.000
 RMSDP=4.15D-04 MaxDP=6.30D-02 DE=-2.92D-03 OVMax= 2.36D-02

 Cycle  15  Pass 1  IDiag  1:
 RMSU=  2.62D-04    CP:  9.74D-01  1.21D+00  3.02D-02 -4.28D-02  6.39D-01
                    CP:  5.93D-01  3.19D-01  4.55D-01  4.76D-01  1.11D+00
                    CP:  2.32D+00  1.96D+00  1.04D+00  8.91D-01
 E= -1136.06708022896     Delta-E=       -0.000659190015 Rises=F Damp=F
 DIIS: error= 7.30D-04 at cycle  15 NSaved=  15.
 NSaved=15 IEnMin=15 EnMin= -1136.06708022896     IErMin=15 ErrMin= 7.30D-04
 ErrMax= 7.30D-04  0.00D+00 EMaxC= 1.00D-01 BMatC= 1.84D-04 BMatP= 7.06D-04
 IDIUse=3 WtCom= 9.93D-01 WtEn= 7.30D-03
 Coeff-Com: -0.280D-01 0.391D-01-0.644D-03 0.120D-02-0.885D-02 0.392D-01
 Coeff-Com:  0.620D-01-0.224D-01-0.141D-01-0.392D+00 0.918D-01 0.289D+00
 Coeff-Com: -0.108D+00-0.199D+00 0.125D+01
 Coeff-En:   0.000D+00 0.000D+00 0.000D+00 0.000D+00 0.000D+00 0.000D+00
 Coeff-En:   0.000D+00 0.000D+00 0.000D+00 0.000D+00 0.000D+00 0.000D+00
 Coeff-En:   0.000D+00 0.000D+00 0.100D+01
 Coeff:     -0.278D-01 0.388D-01-0.640D-03 0.119D-02-0.878D-02 0.389D-01
 Coeff:      0.616D-01-0.222D-01-0.140D-01-0.389D+00 0.911D-01 0.287D+00
 Coeff:     -0.107D+00-0.198D+00 0.125D+01
 Gap=     0.056 Goal=   None    Shift=    0.000
 Gap=     0.041 Goal=   None    Shift=    0.000
 RMSDP=3.29D-04 MaxDP=3.91D-02 DE=-6.59D-04 OVMax= 2.38D-02

 Cycle  16  Pass 1  IDiag  1:
 RMSU=  1.07D-04    CP:  9.74D-01  1.20D+00  2.94D-02 -4.39D-02  6.28D-01
                    CP:  6.20D-01  2.14D-01  2.28D-01  4.77D-01  1.16D+00
                    CP:  2.47D+00  1.44D+00  1.02D+00  8.90D-01  1.86D+00
 E= -1136.06737867300     Delta-E=       -0.000298444043 Rises=F Damp=F
 DIIS: error= 6.96D-04 at cycle  16 NSaved=  16.
 NSaved=16 IEnMin=16 EnMin= -1136.06737867300     IErMin=16 ErrMin= 6.96D-04
 ErrMax= 6.96D-04  0.00D+00 EMaxC= 1.00D-01 BMatC= 4.44D-05 BMatP= 1.84D-04
 IDIUse=3 WtCom= 9.93D-01 WtEn= 6.96D-03
 Coeff-Com: -0.106D-01 0.144D-01-0.826D-03 0.175D-02-0.197D-02 0.209D-02
 Coeff-Com:  0.436D-01 0.882D-01-0.181D-01-0.186D+00-0.395D-01 0.109D+00
 Coeff-Com: -0.889D-01-0.262D+00 0.349D+00 0.100D+01
 Coeff-En:   0.000D+00 0.000D+00 0.000D+00 0.000D+00 0.000D+00 0.000D+00
 Coeff-En:   0.000D+00 0.000D+00 0.000D+00 0.000D+00 0.000D+00 0.000D+00
 Coeff-En:   0.000D+00 0.000D+00 0.000D+00 0.100D+01
 Coeff:     -0.105D-01 0.143D-01-0.820D-03 0.174D-02-0.195D-02 0.207D-02
 Coeff:      0.433D-01 0.876D-01-0.180D-01-0.184D+00-0.393D-01 0.108D+00
 Coeff:     -0.883D-01-0.261D+00 0.346D+00 0.100D+01
 Gap=     0.063 Goal=   None    Shift=    0.000
 Gap=     0.041 Goal=   None    Shift=    0.000
 RMSDP=1.98D-04 MaxDP=2.08D-02 DE=-2.98D-04 OVMax= 2.45D-02

 Cycle  17  Pass 1  IDiag  1:
 RMSU=  6.26D-05    CP:  9.74D-01  1.19D+00  2.74D-02 -4.57D-02  6.21D-01
                    CP:  6.34D-01  1.65D-01  2.41D-01  4.78D-01  1.04D+00
                    CP:  2.41D+00  1.03D+00  1.01D+00  9.68D-01  2.29D+00
                    CP:  1.78D+00
 E= -1136.06748874547     Delta-E=       -0.000110072468 Rises=F Damp=F
 DIIS: error= 2.29D-04 at cycle  17 NSaved=  17.
 NSaved=17 IEnMin=17 EnMin= -1136.06748874547     IErMin=17 ErrMin= 2.29D-04
 ErrMax= 2.29D-04  0.00D+00 EMaxC= 1.00D-01 BMatC= 1.19D-05 BMatP= 4.44D-05
 IDIUse=3 WtCom= 9.98D-01 WtEn= 2.29D-03
 Coeff-Com: -0.793D-02 0.105D-01-0.437D-03 0.552D-03-0.173D-02-0.201D-02
 Coeff-Com:  0.921D-02 0.633D-02-0.709D-02-0.112D+00 0.681D-01 0.429D-01
 Coeff-Com: -0.141D-01-0.749D-01 0.852D-02 0.279D+00 0.795D+00
 Coeff-En:   0.000D+00 0.000D+00 0.000D+00 0.000D+00 0.000D+00 0.000D+00
 Coeff-En:   0.000D+00 0.000D+00 0.000D+00 0.000D+00 0.000D+00 0.000D+00
 Coeff-En:   0.000D+00 0.000D+00 0.000D+00 0.000D+00 0.100D+01
 Coeff:     -0.792D-02 0.105D-01-0.436D-03 0.550D-03-0.172D-02-0.201D-02
 Coeff:      0.919D-02 0.632D-02-0.708D-02-0.112D+00 0.679D-01 0.428D-01
 Coeff:     -0.141D-01-0.747D-01 0.850D-02 0.279D+00 0.795D+00
 Gap=     0.063 Goal=   None    Shift=    0.000
 Gap=     0.042 Goal=   None    Shift=    0.000
 RMSDP=8.21D-05 MaxDP=1.02D-02 DE=-1.10D-04 OVMax= 6.28D-03

 Cycle  18  Pass 1  IDiag  1:
 RMSU=  3.15D-05    CP:  9.74D-01  1.19D+00  2.67D-02 -4.58D-02  6.19D-01
                    CP:  6.42D-01  1.36D-01  2.02D-01  4.74D-01  1.05D+00
                    CP:  2.42D+00  9.33D-01  9.98D-01  9.50D-01  2.42D+00
                    CP:  2.13D+00  1.10D+00
 E= -1136.06750344870     Delta-E=       -0.000014703231 Rises=F Damp=F
 DIIS: error= 1.86D-04 at cycle  18 NSaved=  18.
 NSaved=18 IEnMin=18 EnMin= -1136.06750344870     IErMin=18 ErrMin= 1.86D-04
 ErrMax= 1.86D-04  0.00D+00 EMaxC= 1.00D-01 BMatC= 5.22D-06 BMatP= 1.19D-05
 IDIUse=3 WtCom= 9.98D-01 WtEn= 1.86D-03
 Coeff-Com: -0.553D-02 0.734D-02-0.340D-03-0.250D-03-0.202D-02-0.236D-02
 Coeff-Com: -0.696D-02-0.303D-01 0.142D-02-0.630D-01 0.961D-01 0.157D-01
 Coeff-Com:  0.145D-01 0.175D-01-0.542D-01-0.811D-01 0.365D+00 0.729D+00
 Coeff-En:   0.000D+00 0.000D+00 0.000D+00 0.000D+00 0.000D+00 0.000D+00
 Coeff-En:   0.000D+00 0.000D+00 0.000D+00 0.000D+00 0.000D+00 0.000D+00
 Coeff-En:   0.000D+00 0.000D+00 0.000D+00 0.000D+00 0.000D+00 0.100D+01
 Coeff:     -0.552D-02 0.733D-02-0.340D-03-0.250D-03-0.202D-02-0.236D-02
 Coeff:     -0.695D-02-0.302D-01 0.141D-02-0.628D-01 0.959D-01 0.157D-01
 Coeff:      0.145D-01 0.174D-01-0.541D-01-0.809D-01 0.364D+00 0.729D+00
 Gap=     0.062 Goal=   None    Shift=    0.000
 Gap=     0.042 Goal=   None    Shift=    0.000
 RMSDP=5.54D-05 MaxDP=8.01D-03 DE=-1.47D-05 OVMax= 2.61D-03

 Cycle  19  Pass 1  IDiag  1:
 RMSU=  1.75D-05    CP:  9.74D-01  1.20D+00  2.59D-02 -4.54D-02  6.18D-01
                    CP:  6.47D-01  1.21D-01  1.63D-01  4.72D-01  1.07D+00
                    CP:  2.46D+00  8.54D-01  9.92D-01  9.25D-01  2.45D+00
                    CP:  2.34D+00  1.38D+00  1.36D+00
 E= -1136.06750997351     Delta-E=       -0.000006524812 Rises=F Damp=F
 DIIS: error= 1.15D-04 at cycle  19 NSaved=  19.
 NSaved=19 IEnMin=19 EnMin= -1136.06750997351     IErMin=19 ErrMin= 1.15D-04
 ErrMax= 1.15D-04  0.00D+00 EMaxC= 1.00D-01 BMatC= 2.24D-06 BMatP= 5.22D-06
 IDIUse=3 WtCom= 9.99D-01 WtEn= 1.15D-03
 Coeff-Com:  0.138D-04 0.276D-03-0.153D-03-0.260D-03-0.768D-03-0.411D-02
 Coeff-Com: -0.518D-02 0.139D-01 0.448D-03-0.238D-01-0.407D-02 0.272D-01
 Coeff-Com: -0.167D-01-0.574D-02 0.521D-01 0.940D-01-0.221D+00-0.155D+00
 Coeff-Com:  0.125D+01
 Coeff-En:   0.000D+00 0.000D+00 0.000D+00 0.000D+00 0.000D+00 0.000D+00
 Coeff-En:   0.000D+00 0.000D+00 0.000D+00 0.000D+00 0.000D+00 0.000D+00
 Coeff-En:   0.000D+00 0.000D+00 0.000D+00 0.000D+00 0.000D+00 0.000D+00
 Coeff-En:   0.100D+01
 Coeff:      0.138D-04 0.275D-03-0.153D-03-0.259D-03-0.767D-03-0.410D-02
 Coeff:     -0.517D-02 0.139D-01 0.447D-03-0.238D-01-0.407D-02 0.271D-01
 Coeff:     -0.166D-01-0.574D-02 0.520D-01 0.939D-01-0.220D+00-0.155D+00
 Coeff:      0.125D+01
 Gap=     0.062 Goal=   None    Shift=    0.000
 Gap=     0.043 Goal=   None    Shift=    0.000
 RMSDP=3.30D-05 MaxDP=2.87D-03 DE=-6.52D-06 OVMax= 1.80D-03

 Cycle  20  Pass 1  IDiag  1:
 RMSU=  7.73D-06    CP:  9.74D-01  1.20D+00  2.53D-02 -4.52D-02  6.19D-01
                    CP:  6.49D-01  1.23D-01  1.53D-01  4.70D-01  1.07D+00
                    CP:  2.45D+00  8.28D-01  9.90D-01  9.21D-01  2.44D+00
                    CP:  2.53D+00  1.41D+00  1.70D+00  1.77D+00
 E= -1136.06751333968     Delta-E=       -0.000003366172 Rises=F Damp=F
 DIIS: error= 6.17D-05 at cycle  20 NSaved=  20.
 NSaved=20 IEnMin=20 EnMin= -1136.06751333968     IErMin=20 ErrMin= 6.17D-05
 ErrMax= 6.17D-05  0.00D+00 EMaxC= 1.00D-01 BMatC= 1.15D-06 BMatP= 2.24D-06
 IDIUse=1 WtCom= 1.00D+00 WtEn= 0.00D+00
 Coeff-Com:  0.284D-02-0.376D-02 0.254D-05 0.454D-03 0.232D-02-0.301D-02
 Coeff-Com:  0.300D-02 0.118D-02-0.129D-02-0.104D-01 0.210D-01-0.149D-01
 Coeff-Com: -0.155D-01-0.108D-01 0.451D-01 0.660D-01 0.202D-02-0.321D+00
 Coeff-Com: -0.711D+00 0.195D+01
 Coeff:      0.284D-02-0.376D-02 0.254D-05 0.454D-03 0.232D-02-0.301D-02
 Coeff:      0.300D-02 0.118D-02-0.129D-02-0.104D-01 0.210D-01-0.149D-01
 Coeff:     -0.155D-01-0.108D-01 0.451D-01 0.660D-01 0.202D-02-0.321D+00
 Coeff:     -0.711D+00 0.195D+01
 Gap=     0.061 Goal=   None    Shift=    0.000
 Gap=     0.045 Goal=   None    Shift=    0.000
 RMSDP=3.75D-05 MaxDP=6.49D-03 DE=-3.37D-06 OVMax= 2.75D-03

 Cycle  21  Pass 1  IDiag  1:
 Restarting incremental Fock formation.
 E= -1136.06751599368     Delta-E=       -0.000002653999 Rises=F Damp=F
 DIIS: error= 3.89D-05 at cycle  21 NSaved=  20.
 NSaved=20 IEnMin=20 EnMin= -1136.06751599368     IErMin=20 ErrMin= 3.89D-05
 ErrMax= 3.89D-05  0.00D+00 EMaxC= 1.00D-01 BMatC= 2.00D-07 BMatP= 1.15D-06
 IDIUse=1 WtCom= 1.00D+00 WtEn= 0.00D+00
 Coeff-Com:  0.906D-04-0.168D-03 0.207D-04 0.131D-03-0.685D-04-0.126D-02
 Coeff-Com: -0.997D-03-0.758D-03 0.805D-02 0.712D-03-0.613D-02-0.503D-03
 Coeff-Com:  0.123D-01-0.154D-01 0.533D-02 0.202D-01-0.120D+00-0.467D+00
 Coeff-Com:  0.505D+00 0.106D+01
 Coeff:      0.906D-04-0.168D-03 0.207D-04 0.131D-03-0.685D-04-0.126D-02
 Coeff:     -0.997D-03-0.758D-03 0.805D-02 0.712D-03-0.613D-02-0.503D-03
 Coeff:      0.123D-01-0.154D-01 0.533D-02 0.202D-01-0.120D+00-0.467D+00
 Coeff:      0.505D+00 0.106D+01
 Gap=     0.060 Goal=   None    Shift=    0.000
 Gap=     0.045 Goal=   None    Shift=    0.000
 RMSDP=2.02D-05 MaxDP=2.85D-03 DE=-2.65D-06 OVMax= 1.26D-03

 Cycle  22  Pass 1  IDiag  1:
 RMSU=  2.02D-05    CP:  1.00D+00
 E= -1136.06751645360     Delta-E=       -0.000000459917 Rises=F Damp=F
 DIIS: error= 9.01D-06 at cycle  22 NSaved=  20.
 NSaved=20 IEnMin=20 EnMin= -1136.06751645360     IErMin=20 ErrMin= 9.01D-06
 ErrMax= 9.01D-06  0.00D+00 EMaxC= 1.00D-01 BMatC= 1.01D-08 BMatP= 2.00D-07
 IDIUse=1 WtCom= 1.00D+00 WtEn= 0.00D+00
 Coeff-Com:  0.105D-03-0.146D-03 0.715D-04-0.306D-04 0.240D-03-0.166D-03
 Coeff-Com: -0.375D-03 0.563D-03 0.138D-02-0.179D-02 0.549D-03-0.262D-02
 Coeff-Com: -0.116D-02 0.585D-02 0.876D-03-0.184D-01-0.405D-01 0.464D-01
 Coeff-Com:  0.454D-01 0.964D+00
 Coeff:      0.105D-03-0.146D-03 0.715D-04-0.306D-04 0.240D-03-0.166D-03
 Coeff:     -0.375D-03 0.563D-03 0.138D-02-0.179D-02 0.549D-03-0.262D-02
 Coeff:     -0.116D-02 0.585D-02 0.876D-03-0.184D-01-0.405D-01 0.464D-01
 Coeff:      0.454D-01 0.964D+00
 Gap=     0.060 Goal=   None    Shift=    0.000
 Gap=     0.045 Goal=   None    Shift=    0.000
 RMSDP=2.59D-06 MaxDP=1.78D-04 DE=-4.60D-07 OVMax= 3.26D-04

 Cycle  23  Pass 1  IDiag  1:
 RMSU=  2.54D-06    CP:  1.00D+00  9.77D-01
 E= -1136.06751647389     Delta-E=       -0.000000020287 Rises=F Damp=F
 DIIS: error= 3.37D-06 at cycle  23 NSaved=  20.
 NSaved=20 IEnMin=20 EnMin= -1136.06751647389     IErMin=20 ErrMin= 3.37D-06
 ErrMax= 3.37D-06  0.00D+00 EMaxC= 1.00D-01 BMatC= 2.32D-09 BMatP= 1.01D-08
 IDIUse=1 WtCom= 1.00D+00 WtEn= 0.00D+00
 Coeff-Com: -0.326D-04 0.504D-04-0.353D-04-0.231D-04 0.203D-03-0.102D-03
 Coeff-Com: -0.487D-03 0.163D-05 0.501D-03-0.281D-03-0.208D-02 0.229D-02
 Coeff-Com:  0.253D-02-0.115D-01 0.193D-02 0.611D-01-0.502D-01-0.874D-01
 Coeff-Com:  0.255D+00 0.828D+00
 Coeff:     -0.326D-04 0.504D-04-0.353D-04-0.231D-04 0.203D-03-0.102D-03
 Coeff:     -0.487D-03 0.163D-05 0.501D-03-0.281D-03-0.208D-02 0.229D-02
 Coeff:      0.253D-02-0.115D-01 0.193D-02 0.611D-01-0.502D-01-0.874D-01
 Coeff:      0.255D+00 0.828D+00
 Gap=     0.060 Goal=   None    Shift=    0.000
 Gap=     0.045 Goal=   None    Shift=    0.000
 RMSDP=1.85D-06 MaxDP=1.90D-04 DE=-2.03D-08 OVMax= 9.95D-05

 Cycle  24  Pass 1  IDiag  1:
 RMSU=  1.13D-06    CP:  1.00D+00  9.28D-01  1.43D+00
 E= -1136.06751647762     Delta-E=       -0.000000003728 Rises=F Damp=F
 DIIS: error= 1.92D-06 at cycle  24 NSaved=  20.
 NSaved=20 IEnMin=20 EnMin= -1136.06751647762     IErMin=20 ErrMin= 1.92D-06
 ErrMax= 1.92D-06  0.00D+00 EMaxC= 1.00D-01 BMatC= 3.69D-10 BMatP= 2.32D-09
 IDIUse=1 WtCom= 1.00D+00 WtEn= 0.00D+00
 Coeff-Com: -0.606D-04 0.788D-04-0.321D-06 0.312D-04-0.388D-03 0.131D-04
 Coeff-Com:  0.644D-03-0.264D-03-0.390D-03 0.192D-02-0.452D-03-0.229D-02
 Coeff-Com:  0.450D-02-0.371D-02-0.284D-01 0.208D-01 0.586D-01-0.196D+00
 Coeff-Com: -0.364D+00 0.151D+01
 Coeff:     -0.606D-04 0.788D-04-0.321D-06 0.312D-04-0.388D-03 0.131D-04
 Coeff:      0.644D-03-0.264D-03-0.390D-03 0.192D-02-0.452D-03-0.229D-02
 Coeff:      0.450D-02-0.371D-02-0.284D-01 0.208D-01 0.586D-01-0.196D+00
 Coeff:     -0.364D+00 0.151D+01
 Gap=     0.060 Goal=   None    Shift=    0.000
 Gap=     0.045 Goal=   None    Shift=    0.000
 RMSDP=1.46D-06 MaxDP=9.83D-05 DE=-3.73D-09 OVMax= 6.97D-05

 Cycle  25  Pass 1  IDiag  1:
 RMSU=  9.64D-07    CP:  1.00D+00  9.12D-01  1.60D+00  1.85D+00
 E= -1136.06751647887     Delta-E=       -0.000000001253 Rises=F Damp=F
 DIIS: error= 4.36D-07 at cycle  25 NSaved=  20.
 NSaved=20 IEnMin=20 EnMin= -1136.06751647887     IErMin=20 ErrMin= 4.36D-07
 ErrMax= 4.36D-07  0.00D+00 EMaxC= 1.00D-01 BMatC= 3.72D-11 BMatP= 3.69D-10
 IDIUse=1 WtCom= 1.00D+00 WtEn= 0.00D+00
 Coeff-Com: -0.513D-05 0.603D-05 0.449D-05 0.642D-05-0.106D-03 0.222D-03
 Coeff-Com: -0.122D-03-0.103D-03 0.320D-03 0.415D-06-0.541D-03 0.115D-02
 Coeff-Com: -0.921D-03-0.139D-01 0.144D-01 0.182D-01-0.379D-01-0.110D+00
 Coeff-Com:  0.578D-01 0.107D+01
 Coeff:     -0.513D-05 0.603D-05 0.449D-05 0.642D-05-0.106D-03 0.222D-03
 Coeff:     -0.122D-03-0.103D-03 0.320D-03 0.415D-06-0.541D-03 0.115D-02
 Coeff:     -0.921D-03-0.139D-01 0.144D-01 0.182D-01-0.379D-01-0.110D+00
 Coeff:      0.578D-01 0.107D+01
 Gap=     0.060 Goal=   None    Shift=    0.000
 Gap=     0.045 Goal=   None    Shift=    0.000
 RMSDP=4.01D-07 MaxDP=3.08D-05 DE=-1.25D-09 OVMax= 2.13D-05

 Cycle  26  Pass 1  IDiag  1:
 RMSU=  9.21D-08    CP:  1.00D+00  9.06D-01  1.64D+00  2.15D+00  1.15D+00
 E= -1136.06751647898     Delta-E=       -0.000000000106 Rises=F Damp=F
 DIIS: error= 1.59D-07 at cycle  26 NSaved=  20.
 NSaved=20 IEnMin=20 EnMin= -1136.06751647898     IErMin=20 ErrMin= 1.59D-07
 ErrMax= 1.59D-07  0.00D+00 EMaxC= 1.00D-01 BMatC= 3.75D-12 BMatP= 3.72D-11
 IDIUse=1 WtCom= 1.00D+00 WtEn= 0.00D+00
 Coeff-Com: -0.143D-06 0.938D-07-0.892D-06 0.308D-05 0.219D-05-0.131D-05
 Coeff-Com: -0.516D-05-0.260D-04 0.112D-04-0.837D-04 0.181D-03-0.335D-03
 Coeff-Com: -0.111D-02 0.182D-02 0.180D-02 0.433D-02-0.359D-02-0.912D-01
 Coeff-Com:  0.220D+00 0.868D+00
 Coeff:     -0.143D-06 0.938D-07-0.892D-06 0.308D-05 0.219D-05-0.131D-05
 Coeff:     -0.516D-05-0.260D-04 0.112D-04-0.837D-04 0.181D-03-0.335D-03
 Coeff:     -0.111D-02 0.182D-02 0.180D-02 0.433D-02-0.359D-02-0.912D-01
 Coeff:      0.220D+00 0.868D+00
 Gap=     0.060 Goal=   None    Shift=    0.000
 Gap=     0.045 Goal=   None    Shift=    0.000
 RMSDP=7.93D-08 MaxDP=7.56D-06 DE=-1.06D-10 OVMax= 6.14D-06

 Cycle  27  Pass 1  IDiag  1:
 RMSU=  4.10D-08    CP:  1.00D+00  9.05D-01  1.64D+00  2.19D+00  1.18D+00
                    CP:  1.26D+00
 E= -1136.06751647899     Delta-E=       -0.000000000016 Rises=F Damp=F
 DIIS: error= 8.11D-08 at cycle  27 NSaved=  20.
 NSaved=20 IEnMin=20 EnMin= -1136.06751647899     IErMin=20 ErrMin= 8.11D-08
 ErrMax= 8.11D-08  0.00D+00 EMaxC= 1.00D-01 BMatC= 7.29D-13 BMatP= 3.75D-12
 IDIUse=1 WtCom= 1.00D+00 WtEn= 0.00D+00
 Coeff-Com: -0.806D-06 0.107D-05-0.865D-06 0.145D-05 0.103D-05 0.129D-04
 Coeff-Com: -0.819D-06-0.553D-04-0.120D-04-0.954D-04 0.310D-03 0.123D-02
 Coeff-Com: -0.148D-02-0.130D-02 0.524D-02 0.953D-02 0.834D-04-0.153D+00
 Coeff-Com:  0.574D-01 0.108D+01
 Coeff:     -0.806D-06 0.107D-05-0.865D-06 0.145D-05 0.103D-05 0.129D-04
 Coeff:     -0.819D-06-0.553D-04-0.120D-04-0.954D-04 0.310D-03 0.123D-02
 Coeff:     -0.148D-02-0.130D-02 0.524D-02 0.953D-02 0.834D-04-0.153D+00
 Coeff:      0.574D-01 0.108D+01
 Gap=     0.060 Goal=   None    Shift=    0.000
 Gap=     0.045 Goal=   None    Shift=    0.000
 RMSDP=3.27D-08 MaxDP=4.10D-06 DE=-1.59D-11 OVMax= 3.48D-06

 Cycle  28  Pass 1  IDiag  1:
 RMSU=  1.93D-08    CP:  1.00D+00  9.04D-01  1.63D+00  2.19D+00  1.18D+00
                    CP:  1.46D+00  1.25D+00
 E= -1136.06751647899     Delta-E=        0.000000000003 Rises=F Damp=F
 DIIS: error= 3.79D-08 at cycle  28 NSaved=  20.
 NSaved=20 IEnMin=19 EnMin= -1136.06751647899     IErMin=20 ErrMin= 3.79D-08
 ErrMax= 3.79D-08  0.00D+00 EMaxC= 1.00D-01 BMatC= 1.06D-13 BMatP= 7.29D-13
 IDIUse=1 WtCom= 1.00D+00 WtEn= 0.00D+00
 Coeff-Com:  0.689D-07-0.828D-07-0.192D-06 0.636D-07 0.471D-05-0.238D-06
 Coeff-Com: -0.129D-04 0.547D-06-0.299D-04 0.773D-04 0.546D-03-0.652D-03
 Coeff-Com: -0.556D-03 0.113D-02 0.297D-02 0.972D-02-0.724D-01-0.124D+00
 Coeff-Com:  0.192D+00 0.991D+00
 Coeff:      0.689D-07-0.828D-07-0.192D-06 0.636D-07 0.471D-05-0.238D-06
 Coeff:     -0.129D-04 0.547D-06-0.299D-04 0.773D-04 0.546D-03-0.652D-03
 Coeff:     -0.556D-03 0.113D-02 0.297D-02 0.972D-02-0.724D-01-0.124D+00
 Coeff:      0.192D+00 0.991D+00
 Gap=     0.060 Goal=   None    Shift=    0.000
 Gap=     0.045 Goal=   None    Shift=    0.000
 RMSDP=1.57D-08 MaxDP=1.74D-06 DE= 3.18D-12 OVMax= 1.98D-06

 Cycle  29  Pass 1  IDiag  1:
 RMSU=  5.01D-09    CP:  1.00D+00  9.04D-01  1.63D+00  2.20D+00  1.18D+00
                    CP:  1.54D+00  1.48D+00  1.29D+00
 E= -1136.06751647899     Delta-E=       -0.000000000004 Rises=F Damp=F
 DIIS: error= 2.03D-08 at cycle  29 NSaved=  20.
 NSaved=20 IEnMin=20 EnMin= -1136.06751647899     IErMin=20 ErrMin= 2.03D-08
 ErrMax= 2.03D-08  0.00D+00 EMaxC= 1.00D-01 BMatC= 2.43D-14 BMatP= 1.06D-13
 IDIUse=1 WtCom= 1.00D+00 WtEn= 0.00D+00
 Coeff-Com: -0.166D-06 0.190D-06-0.879D-07-0.247D-05 0.167D-05 0.128D-04
 Coeff-Com: -0.341D-05 0.295D-04-0.372D-04-0.348D-03 0.332D-03 0.357D-03
 Coeff-Com: -0.146D-02-0.273D-02 0.322D-02 0.320D-01-0.310D-01-0.215D+00
 Coeff-Com:  0.715D-01 0.114D+01
 Coeff:     -0.166D-06 0.190D-06-0.879D-07-0.247D-05 0.167D-05 0.128D-04
 Coeff:     -0.341D-05 0.295D-04-0.372D-04-0.348D-03 0.332D-03 0.357D-03
 Coeff:     -0.146D-02-0.273D-02 0.322D-02 0.320D-01-0.310D-01-0.215D+00
 Coeff:      0.715D-01 0.114D+01
 Gap=     0.060 Goal=   None    Shift=    0.000
 Gap=     0.045 Goal=   None    Shift=    0.000
 RMSDP=7.95D-09 MaxDP=8.18D-07 DE=-4.09D-12 OVMax= 1.43D-06

 SCF Done:  E(UB3LYP) =  -1136.06751648     A.U. after   29 cycles
            NFock= 29  Conv=0.80D-08     -V/T= 2.0029
 <Sx>= 0.0000 <Sy>= 0.0000 <Sz>= 0.5000 <S**2>= 1.7792 S= 0.9245
 <L.S>= 0.000000000000E+00
 KE= 1.132787693783D+03 PE=-2.935642553347D+03 EE= 5.632306191542D+02
 Annihilation of the first spin contaminant:
 S**2 before annihilation     1.7792,   after     0.8470
 Leave Link  502 at Tue Nov 21 11:50:38 2023, MaxMem=   104857600 cpu:             742.7 elap:             563.4
 (Enter /home/sekinelabo/g16/l601.exe)
 Copying SCF densities to generalized density rwf, IOpCl= 1 IROHF=0.

 **********************************************************************

            Population analysis using the SCF Density.

 **********************************************************************

 Orbital symmetries:
 Alpha Orbitals:
       Occupied  (A) (A) (A) (A) (A) (A) (A) (A) (A) (A) (A) (A)
                 (A) (A) (A) (A) (A) (A) (A) (A) (A) (A) (A) (A)
                 (A) (A) (A) (A) (A) (A) (A) (A) (A) (A) (A) (A)
                 (A) (A) (A)
       Virtual   (A) (A) (A) (A) (A) (A) (A) (A) (A) (A) (A) (A)
                 (A) (A) (A) (A) (A) (A) (A) (A) (A) (A) (A) (A)
                 (A) (A) (A) (A) (A) (A) (A) (A) (A) (A) (A) (A)
                 (A) (A) (A) (A) (A) (A) (A) (A) (A) (A) (A) (A)
                 (A) (A) (A) (A) (A) (A) (A) (A) (A) (A) (A) (A)
                 (A) (A) (A) (A) (A) (A) (A) (A) (A) (A) (A) (A)
                 (A) (A) (A) (A) (A) (A) (A) (A) (A) (A) (A) (A)
                 (A) (A) (A) (A) (A) (A) (A) (A) (A) (A) (A) (A)
                 (A) (A) (A) (A) (A) (A) (A) (A) (A) (A) (A) (A)
                 (A) (A) (A) (A) (A) (A) (A) (A) (A) (A) (A) (A)
                 (A) (A) (A) (A) (A) (A) (A) (A) (A) (A) (A) (A)
                 (A) (A) (A) (A) (A) (A) (A) (A) (A) (A) (A) (A)
                 (A) (A) (A) (A) (A) (A) (A) (A) (A) (A) (A) (A)
                 (A) (A) (A) (A) (A) (A) (A) (A) (A) (A) (A) (A)
                 (A) (A) (A)
 Beta  Orbitals:
       Occupied  (A) (A) (A) (A) (A) (A) (A) (A) (A) (A) (A) (A)
                 (A) (A) (A) (A) (A) (A) (A) (A) (A) (A) (A) (A)
                 (A) (A) (A) (A) (A) (A) (A) (A) (A) (A) (A) (A)
                 (A) (A)
       Virtual   (A) (A) (A) (A) (A) (A) (A) (A) (A) (A) (A) (A)
                 (A) (A) (A) (A) (A) (A) (A) (A) (A) (A) (A) (A)
                 (A) (A) (A) (A) (A) (A) (A) (A) (A) (A) (A) (A)
                 (A) (A) (A) (A) (A) (A) (A) (A) (A) (A) (A) (A)
                 (A) (A) (A) (A) (A) (A) (A) (A) (A) (A) (A) (A)
                 (A) (A) (A) (A) (A) (A) (A) (A) (A) (A) (A) (A)
                 (A) (A) (A) (A) (A) (A) (A) (A) (A) (A) (A) (A)
                 (A) (A) (A) (A) (A) (A) (A) (A) (A) (A) (A) (A)
                 (A) (A) (A) (A) (A) (A) (A) (A) (A) (A) (A) (A)
                 (A) (A) (A) (A) (A) (A) (A) (A) (A) (A) (A) (A)
                 (A) (A) (A) (A) (A) (A) (A) (A) (A) (A) (A) (A)
                 (A) (A) (A) (A) (A) (A) (A) (A) (A) (A) (A) (A)
                 (A) (A) (A) (A) (A) (A) (A) (A) (A) (A) (A) (A)
                 (A) (A) (A) (A) (A) (A) (A) (A) (A) (A) (A) (A)
                 (A) (A) (A) (A)
 The electronic state is 2-A.
 Alpha  occ. eigenvalues --  -38.45771 -38.45592 -38.45270 -38.44991 -38.44586
 Alpha  occ. eigenvalues --  -38.44585 -38.43758  -2.21556  -2.21216  -2.21061
 Alpha  occ. eigenvalues --   -2.20791  -2.20325  -2.20316  -2.19535  -1.15168
 Alpha  occ. eigenvalues --   -1.15168  -1.15168  -1.14941  -1.14941  -1.14941
 Alpha  occ. eigenvalues --   -1.14693  -1.14693  -1.14672  -1.14423  -1.14423
 Alpha  occ. eigenvalues --   -1.14416  -1.13997  -1.13997  -1.13989  -1.13989
 Alpha  occ. eigenvalues --   -1.13980  -1.13911  -1.13223  -1.13223  -1.13197
 Alpha  occ. eigenvalues --   -0.14445  -0.12799  -0.12670  -0.12200
 Alpha virt. eigenvalues --   -0.06225  -0.06107  -0.05169  -0.02927  -0.02916
 Alpha virt. eigenvalues --   -0.02224  -0.02224  -0.02098  -0.02098  -0.02097
 Alpha virt. eigenvalues --   -0.01752  -0.01390  -0.01304  -0.01286  -0.00089
 Alpha virt. eigenvalues --   -0.00088  -0.00088   0.00038   0.00120   0.00408
 Alpha virt. eigenvalues --    0.00408   0.00551   0.00680   0.00847   0.00906
 Alpha virt. eigenvalues --    0.00924   0.01014   0.01024   0.01316   0.01317
 Alpha virt. eigenvalues --    0.01332   0.01334   0.01336   0.01656   0.01706
 Alpha virt. eigenvalues --    0.01762   0.01796   0.01813   0.01971   0.02240
 Alpha virt. eigenvalues --    0.02243   0.02252   0.02547   0.02623   0.02629
 Alpha virt. eigenvalues --    0.03196   0.03418   0.03467   0.03490   0.04010
 Alpha virt. eigenvalues --    0.04071   0.05143   0.07057   0.07160   0.07201
 Alpha virt. eigenvalues --    0.07321   0.07471   0.07472   0.07477   0.07606
 Alpha virt. eigenvalues --    0.07625   0.07630   0.07973   0.08007   0.08038
 Alpha virt. eigenvalues --    0.08711   0.08821   0.08828   0.08832   0.09374
 Alpha virt. eigenvalues --    0.09375   0.09458   0.09576   0.10179   0.10282
 Alpha virt. eigenvalues --    0.10404   0.13142   0.13956   0.13986   0.16356
 Alpha virt. eigenvalues --    0.27744   0.28301   0.30301   0.30301   0.30849
 Alpha virt. eigenvalues --    0.31389   0.32814   0.32825   0.33227   0.33227
 Alpha virt. eigenvalues --    0.33227   0.33228   0.33228   0.34081   0.34081
 Alpha virt. eigenvalues --    0.34157   0.34163   0.35319   0.35319   0.35319
 Alpha virt. eigenvalues --    0.35319   0.35319   0.35969   0.36102   0.36789
 Alpha virt. eigenvalues --    0.36789   0.38515   0.38614   0.38823   0.41941
 Alpha virt. eigenvalues --    0.41941   0.41941   0.42071   0.42730   0.42853
 Alpha virt. eigenvalues --    0.43067   0.43108   0.43109   0.43173   0.43429
 Alpha virt. eigenvalues --    0.43431   0.43434   0.43699   0.43700   0.44461
 Alpha virt. eigenvalues --    0.44830   0.44831   0.45038   0.45238   0.46113
 Alpha virt. eigenvalues --    0.47230   0.48165   0.49022   0.55525   0.58825
 Alpha virt. eigenvalues --    0.65518   1.98668   1.99502   1.99531   1.99859
 Alpha virt. eigenvalues --    2.08815   2.10844   2.14895   4.41618   4.42708
 Alpha virt. eigenvalues --    4.42810   4.42811   4.42812   4.43127   4.43130
 Alpha virt. eigenvalues --    4.43132   4.43597   4.43671   4.43762   4.43840
 Alpha virt. eigenvalues --    4.44093   4.44093   4.44621   4.44621   4.45669
 Alpha virt. eigenvalues --    4.45928   4.48505   4.50422   4.56016  96.17685
 Alpha virt. eigenvalues --   96.17948  96.18269  96.18482  96.29938  96.31766
 Alpha virt. eigenvalues --   96.36510
  Beta  occ. eigenvalues --  -38.45778 -38.45586 -38.45152 -38.44889 -38.44586
  Beta  occ. eigenvalues --  -38.44585 -38.43768  -2.21562  -2.21210  -2.20841
  Beta  occ. eigenvalues --   -2.20601  -2.20325  -2.20316  -2.19563  -1.15175
  Beta  occ. eigenvalues --   -1.15175  -1.15175  -1.14934  -1.14934  -1.14934
  Beta  occ. eigenvalues --   -1.14544  -1.14544  -1.14526  -1.14294  -1.14294
  Beta  occ. eigenvalues --   -1.14290  -1.13997  -1.13997  -1.13989  -1.13989
  Beta  occ. eigenvalues --   -1.13980  -1.13911  -1.13251  -1.13251  -1.13148
  Beta  occ. eigenvalues --   -0.13246  -0.12805  -0.12670
  Beta virt. eigenvalues --   -0.08199  -0.06219  -0.06107  -0.04344  -0.02604
  Beta virt. eigenvalues --   -0.02582  -0.02224  -0.02224  -0.02105  -0.02104
  Beta virt. eigenvalues --   -0.02104  -0.01304  -0.01025  -0.00704  -0.00641
  Beta virt. eigenvalues --   -0.00084  -0.00083  -0.00082   0.00113   0.00171
  Beta virt. eigenvalues --    0.00408   0.00408   0.00551   0.00680   0.00848
  Beta virt. eigenvalues --    0.00878   0.00995   0.01019   0.01162   0.01302
  Beta virt. eigenvalues --    0.01316   0.01326   0.01329   0.01335   0.01727
  Beta virt. eigenvalues --    0.01811   0.01844   0.01879   0.02012   0.02066
  Beta virt. eigenvalues --    0.02249   0.02258   0.02266   0.02536   0.02623
  Beta virt. eigenvalues --    0.02626   0.03252   0.03418   0.03485   0.03576
  Beta virt. eigenvalues --    0.04009   0.04237   0.05374   0.07045   0.07446
  Beta virt. eigenvalues --    0.07464   0.07465   0.07465   0.07487   0.07619
  Beta virt. eigenvalues --    0.07626   0.07641   0.07868   0.08013   0.08446
  Beta virt. eigenvalues --    0.08498   0.08713   0.08827   0.08834   0.08839
  Beta virt. eigenvalues --    0.09374   0.09377   0.09460   0.09879   0.10179
  Beta virt. eigenvalues --    0.10294   0.10677   0.13585   0.13987   0.14055
  Beta virt. eigenvalues --    0.16768   0.28384   0.28947   0.30301   0.30301
  Beta virt. eigenvalues --    0.31390   0.31469   0.33221   0.33221   0.33221
  Beta virt. eigenvalues --    0.33221   0.33221   0.33242   0.33254   0.34081
  Beta virt. eigenvalues --    0.34081   0.35279   0.35284   0.35325   0.35325
  Beta virt. eigenvalues --    0.35325   0.35325   0.35325   0.36782   0.36789
  Beta virt. eigenvalues --    0.36789   0.36859   0.38889   0.38915   0.39240
  Beta virt. eigenvalues --    0.41935   0.41935   0.41938   0.42071   0.43109
  Beta virt. eigenvalues --    0.43109   0.43212   0.43294   0.43420   0.43435
  Beta virt. eigenvalues --    0.43437   0.43458   0.43554   0.43699   0.43700
  Beta virt. eigenvalues --    0.44804   0.44830   0.44831   0.44843   0.44950
  Beta virt. eigenvalues --    0.46492   0.47230   0.48349   0.49193   0.55908
  Beta virt. eigenvalues --    0.58825   0.65690   1.98662   1.99537   1.99796
  Beta virt. eigenvalues --    1.99859   2.09296   2.10844   2.14972   4.41746
  Beta virt. eigenvalues --    4.42701   4.42803   4.42805   4.42817   4.43134
  Beta virt. eigenvalues --    4.43134   4.43136   4.43771   4.43836   4.43898
  Beta virt. eigenvalues --    4.43982   4.44093   4.44094   4.44621   4.44621
  Beta virt. eigenvalues --    4.45650   4.45883   4.48657   4.50422   4.56093
  Beta virt. eigenvalues --   96.17679  96.17954  96.18368  96.18482  96.30096
  Beta virt. eigenvalues --   96.31766  96.36545
          Condensed to atoms (all electrons):
               1          2          3          4          5          6
     1  Na  11.000000  -0.000000  -0.000000   0.000000  -0.000000   0.000000
     2  Na  -0.000000  10.686686   0.313297  -0.000000  -0.000000   0.000000
     3  Na  -0.000000   0.313297  10.686720  -0.000000  -0.000000   0.000000
     4  Na   0.000000  -0.000000  -0.000000  10.520634   0.212521  -0.026097
     5  Na  -0.000000  -0.000000  -0.000000   0.212521  11.112275   0.206000
     6  Na   0.000000   0.000000   0.000000  -0.026097   0.206000  10.582242
     7  Na  -0.000000   0.000000   0.000000  -0.000000   0.000000   0.000000
               7
     1  Na  -0.000000
     2  Na   0.000000
     3  Na   0.000000
     4  Na  -0.000000
     5  Na   0.000000
     6  Na   0.000000
     7  Na  11.000000
          Atomic-Atomic Spin Densities.
               1          2          3          4          5          6
     1  Na  -1.000000   0.000000   0.000000   0.000000  -0.000000  -0.000000
     2  Na   0.000000  -0.000029   0.000004  -0.000000   0.000000   0.000000
     3  Na   0.000000   0.000004   0.000021   0.000000   0.000000  -0.000000
     4  Na   0.000000  -0.000000   0.000000   0.300275   0.103771   0.012527
     5  Na  -0.000000   0.000000   0.000000   0.103771  -0.111515   0.093131
     6  Na  -0.000000   0.000000  -0.000000   0.012527   0.093131   0.392381
     7  Na  -0.000000  -0.000000  -0.000000  -0.000000   0.000000   0.000000
               7
     1  Na  -0.000000
     2  Na  -0.000000
     3  Na  -0.000000
     4  Na  -0.000000
     5  Na   0.000000
     6  Na   0.000000
     7  Na   1.000000
 Mulliken charges and spin densities:
               1          2
     1  Na  -0.000000  -1.000000
     2  Na   0.000017  -0.000025
     3  Na  -0.000017   0.000025
     4  Na   0.292942   0.416573
     5  Na  -0.530797   0.085388
     6  Na   0.237855   0.498039
     7  Na  -0.000000   1.000000
 Sum of Mulliken charges =  -0.00000   1.00000
 Mulliken charges and spin densities with hydrogens summed into heavy atoms:
               1          2
     1  Na  -0.000000  -1.000000
     2  Na   0.000017  -0.000025
     3  Na  -0.000017   0.000025
     4  Na   0.292942   0.416573
     5  Na  -0.530797   0.085388
     6  Na   0.237855   0.498039
     7  Na  -0.000000   1.000000
 Electronic spatial extent (au):  <R**2>=          85399.5387
 Charge=             -0.0000 electrons
 Dipole moment (field-independent basis, Debye):
    X=              0.1789    Y=             -0.0914    Z=              0.0113  Tot=              0.2012
 Quadrupole moment (field-independent basis, Debye-Ang):
   XX=            -71.0363   YY=            -60.3670   ZZ=            -70.3765
   XY=             -7.1528   XZ=              1.0731   YZ=              6.4040
 Traceless Quadrupole moment (field-independent basis, Debye-Ang):
   XX=             -3.7763   YY=              6.8929   ZZ=             -3.1166
   XY=             -7.1528   XZ=              1.0731   YZ=              6.4040
 Octapole moment (field-independent basis, Debye-Ang**2):
  XXX=             45.1507  YYY=           -443.1538  ZZZ=             19.0178  XYY=            120.7191
  XXY=             64.7412  XXZ=            -12.4150  XZZ=            122.5736  YZZ=            -27.5048
  YYZ=            -33.4432  XYZ=            117.9346
 Hexadecapole moment (field-independent basis, Debye-Ang**3):
 XXXX=         -77662.7374 YYYY=         -55641.1743 ZZZZ=          -1454.3361 XXXY=          -2415.6583
 XXXZ=            625.2775 YYYX=            780.0569 YYYZ=            121.8398 ZZZX=            271.1634
 ZZZY=             58.9581 XXYY=         -23717.5656 XXZZ=         -12456.4512 YYZZ=         -10780.8852
 XXYZ=           1321.6950 YYXZ=          -1090.7537 ZZXY=           -358.3948
 N-N= 1.035567239312D+02 E-N=-2.935642553584D+03  KE= 1.132787693783D+03
                          Isotropic Fermi Contact Couplings
        Atom                 a.u.       MegaHertz       Gauss      10(-4) cm-1
     1  Na(23)            -0.79296    -938.09926    -334.73715    -312.91623
     2  Na(23)            -0.00001      -0.00593      -0.00212      -0.00198
     3  Na(23)             0.00001       0.00595       0.00212       0.00198
     4  Na(23)             0.44143     522.22929     186.34440     174.19694
     5  Na(23)            -0.14314    -169.33308     -60.42225     -56.48344
     6  Na(23)             0.50847     601.53896     214.64406     200.65180
     7  Na(23)             0.79296     938.09932     334.73717     312.91625
 --------------------------------------------------------
       Center         ----  Spin Dipole Couplings  ----
                      3XX-RR        3YY-RR        3ZZ-RR
 --------------------------------------------------------
     1   Atom        0.000021     -0.000008     -0.000013
     2   Atom        0.000018     -0.000015     -0.000003
     3   Atom        0.000022     -0.000023      0.000001
     4   Atom        0.002364     -0.001013     -0.001350
     5   Atom       -0.038415      0.018540      0.019874
     6   Atom        0.002182     -0.001194     -0.000988
     7   Atom       -0.000024      0.000022      0.000002
 --------------------------------------------------------
                        XY            XZ            YZ
 --------------------------------------------------------
     1   Atom        0.000004     -0.000004     -0.000001
     2   Atom        0.000014      0.000000     -0.000002
     3   Atom        0.000013      0.000001     -0.000003
     4   Atom       -0.000231     -0.000173     -0.003493
     5   Atom       -0.000012      0.000112      0.057766
     6   Atom        0.000229      0.000270     -0.003237
     7   Atom       -0.000015      0.000005     -0.000001
 --------------------------------------------------------


 ---------------------------------------------------------------------------------
              Anisotropic Spin Dipole Couplings in Principal Axis System
 ---------------------------------------------------------------------------------

       Atom             a.u.   MegaHertz   Gauss  10(-4) cm-1        Axes

              Baa    -0.0000    -0.002    -0.001    -0.001  0.1115  0.1070  0.9880
     1 Na(23) Bbb    -0.0000    -0.001    -0.000    -0.000 -0.1488  0.9848 -0.0898
              Bcc     0.0000     0.003     0.001     0.001  0.9826  0.1370 -0.1258
 
              Baa    -0.0000    -0.003    -0.001    -0.001 -0.3350  0.9373  0.0962
     2 Na(23) Bbb    -0.0000    -0.000    -0.000    -0.000  0.0373 -0.0888  0.9954
              Bcc     0.0000     0.003     0.001     0.001  0.9415  0.3371 -0.0052
 
              Baa    -0.0000    -0.004    -0.001    -0.001 -0.2564  0.9594  0.1177
     3 Na(23) Bbb     0.0000     0.000     0.000     0.000  0.0259 -0.1149  0.9930
              Bcc     0.0000     0.004     0.001     0.001  0.9662  0.2576  0.0046
 
              Baa    -0.0047    -0.662    -0.236    -0.221  0.0403  0.6895  0.7232
     4 Na(23) Bbb     0.0023     0.323     0.115     0.108  0.4823  0.6204 -0.6184
              Bcc     0.0024     0.339     0.121     0.113  0.8751 -0.3737  0.3075
 
              Baa    -0.0386    -5.451    -1.945    -1.818  0.4195  0.6454 -0.6383
     5 Na(23) Bbb    -0.0384    -5.419    -1.934    -1.808  0.9077 -0.2988  0.2945
              Bcc     0.0770    10.870     3.879     3.626  0.0006  0.7030  0.7112
 
              Baa    -0.0043    -0.614    -0.219    -0.205 -0.0538  0.7170  0.6949
     6 Na(23) Bbb     0.0021     0.301     0.107     0.100  0.4406  0.6416 -0.6279
              Bcc     0.0022     0.313     0.112     0.104  0.8961 -0.2724  0.3504
 
              Baa    -0.0000    -0.004    -0.001    -0.001  0.9476  0.2844 -0.1455
     7 Na(23) Bbb     0.0000     0.000     0.000     0.000  0.1045  0.1544  0.9825
              Bcc     0.0000     0.004     0.001     0.001 -0.3019  0.9462 -0.1166
 

 ---------------------------------------------------------------------------------

 No NMR shielding tensors so no spin-rotation constants.
 Leave Link  601 at Tue Nov 21 11:50:40 2023, MaxMem=   104857600 cpu:              15.1 elap:               1.8
 (Enter /home/sekinelabo/g16/l701.exe)
 ... and contract with generalized density number  0.
 Compute integral first derivatives.
 Leave Link  701 at Tue Nov 21 11:50:40 2023, MaxMem=   104857600 cpu:               1.5 elap:               0.1
 (Enter /home/sekinelabo/g16/l702.exe)
 L702 exits ... SP integral derivatives will be done elsewhere.
 Leave Link  702 at Tue Nov 21 11:50:40 2023, MaxMem=   104857600 cpu:               0.5 elap:               0.0
 (Enter /home/sekinelabo/g16/l703.exe)
 Integral derivatives from FoFJK, PRISM(SPDF).
 Compute integral first derivatives, UseDBF=F ICtDFT=           0.
 Calling FoFJK, ICntrl=      2127 FMM=F ISym2X=0 I1Cent= 0 IOpClX= 1 NMat=1 NMatS=1 NMatT=0.
 FoFJK:  IHMeth= 1 ICntrl=    2127 DoSepK=F KAlg= 0 I1Cent=           0 FoldK=F
 IRaf=         0 NMat=       1 IRICut=       1 DoRegI=T DoRafI=F ISym2E= 0 IDoP0=0 IntGTp=1.
 FoFCou: FMM=F IPFlag=           0 FMFlag=      100000 FMFlg1=         800
         NFxFlg=           0 DoJE=F BraDBF=F KetDBF=F FulRan=T
         wScrn=  0.000000 ICntrl=      2127 IOpCl=  1 I1Cent=           0 NGrid=           0
         NMat0=    1 NMatS0=      1 NMatT0=    0 NMatD0=    1 NMtDS0=    0 NMtDT0=    0
 Symmetry not used in FoFCou.
 Leave Link  703 at Tue Nov 21 11:50:41 2023, MaxMem=   104857600 cpu:               7.9 elap:               0.6
 (Enter /home/sekinelabo/g16/l716.exe)
 Dipole        = 7.03861690D-02-3.59709043D-02 4.46200030D-03
 ***** Axes restored to original set *****
 -------------------------------------------------------------------
 Center     Atomic                   Forces (Hartrees/Bohr)
 Number     Number              X              Y              Z
 -------------------------------------------------------------------
      1       11          -0.000000002   -0.000000042    0.000000002
      2       11          -0.000724818    0.005623451    0.001704116
      3       11           0.000724829   -0.005623410   -0.001704082
      4       11          -0.000686779   -0.000679942    0.000465365
      5       11          -0.000611524   -0.001013623   -0.000146775
      6       11           0.001298292    0.001693575   -0.000318626
      7       11           0.000000003   -0.000000008   -0.000000001
 -------------------------------------------------------------------
 Cartesian Forces:  Max     0.005623451 RMS     0.001918995
 Z-matrix is all fixed cartesians, so copy forces.
 Force constants in Cartesian coordinates: 
                1             2             3             4             5 
      1  0.100000D+01
      2  0.000000D+00  0.100000D+01
      3  0.000000D+00  0.000000D+00  0.100000D+01
      4  0.000000D+00  0.000000D+00  0.000000D+00  0.290628D-03
      5  0.000000D+00  0.000000D+00  0.000000D+00 -0.225392D-02  0.174799D-01
      6  0.000000D+00  0.000000D+00  0.000000D+00 -0.682884D-03  0.529600D-02
      7  0.000000D+00  0.000000D+00  0.000000D+00 -0.290628D-03  0.225392D-02
      8  0.000000D+00  0.000000D+00  0.000000D+00  0.225392D-02 -0.174799D-01
      9  0.000000D+00  0.000000D+00  0.000000D+00  0.682884D-03 -0.529600D-02
     10  0.000000D+00  0.000000D+00  0.000000D+00  0.000000D+00  0.000000D+00
     11  0.000000D+00  0.000000D+00  0.000000D+00  0.000000D+00  0.000000D+00
     12  0.000000D+00  0.000000D+00  0.000000D+00  0.000000D+00  0.000000D+00
     13  0.000000D+00  0.000000D+00  0.000000D+00  0.000000D+00  0.000000D+00
     14  0.000000D+00  0.000000D+00  0.000000D+00  0.000000D+00  0.000000D+00
     15  0.000000D+00  0.000000D+00  0.000000D+00  0.000000D+00  0.000000D+00
     16  0.000000D+00  0.000000D+00  0.000000D+00  0.000000D+00  0.000000D+00
     17  0.000000D+00  0.000000D+00  0.000000D+00  0.000000D+00  0.000000D+00
     18  0.000000D+00  0.000000D+00  0.000000D+00  0.000000D+00  0.000000D+00
     19  0.000000D+00  0.000000D+00  0.000000D+00  0.000000D+00  0.000000D+00
     20  0.000000D+00  0.000000D+00  0.000000D+00  0.000000D+00  0.000000D+00
     21  0.000000D+00  0.000000D+00  0.000000D+00  0.000000D+00  0.000000D+00
                6             7             8             9            10 
      6  0.160456D-02
      7  0.682884D-03  0.290628D-03
      8 -0.529600D-02 -0.225392D-02  0.174799D-01
      9 -0.160456D-02 -0.682884D-03  0.529600D-02  0.160456D-02
     10  0.000000D+00  0.000000D+00  0.000000D+00  0.000000D+00  0.970629D-02
     11  0.000000D+00  0.000000D+00  0.000000D+00  0.000000D+00  0.982859D-02
     12  0.000000D+00  0.000000D+00  0.000000D+00  0.000000D+00 -0.628289D-02
     13  0.000000D+00  0.000000D+00  0.000000D+00  0.000000D+00 -0.975708D-02
     14  0.000000D+00  0.000000D+00  0.000000D+00  0.000000D+00 -0.974166D-02
     15  0.000000D+00  0.000000D+00  0.000000D+00  0.000000D+00  0.650606D-02
     16  0.000000D+00  0.000000D+00  0.000000D+00  0.000000D+00  0.507887D-04
     17  0.000000D+00  0.000000D+00  0.000000D+00  0.000000D+00 -0.869229D-04
     18  0.000000D+00  0.000000D+00  0.000000D+00  0.000000D+00 -0.223174D-03
     19  0.000000D+00  0.000000D+00  0.000000D+00  0.000000D+00  0.000000D+00
     20  0.000000D+00  0.000000D+00  0.000000D+00  0.000000D+00  0.000000D+00
     21  0.000000D+00  0.000000D+00  0.000000D+00  0.000000D+00  0.000000D+00
               11            12            13            14            15 
     11  0.121734D-01
     12 -0.330714D-02  0.826887D-02
     13 -0.913866D-02  0.733547D-02  0.169364D-01
     14 -0.133542D-01  0.150568D-02  0.174685D-01  0.266194D-01
     15  0.275492D-03 -0.128941D-01 -0.105246D-01  0.976787D-03  0.228148D-01
     16 -0.689924D-03 -0.105259D-02 -0.717931D-02 -0.772680D-02  0.401854D-02
     17  0.118078D-02  0.180146D-02 -0.832980D-02 -0.132652D-01 -0.125228D-02
     18  0.303164D-02  0.462524D-02  0.318913D-02 -0.248246D-02 -0.992072D-02
     19  0.000000D+00  0.000000D+00  0.000000D+00  0.000000D+00  0.000000D+00
     20  0.000000D+00  0.000000D+00  0.000000D+00  0.000000D+00  0.000000D+00
     21  0.000000D+00  0.000000D+00  0.000000D+00  0.000000D+00  0.000000D+00
               16            17            18            19            20 
     16  0.712852D-02
     17  0.841672D-02  0.120844D-01
     18 -0.296596D-02 -0.549179D-03  0.529548D-02
     19  0.000000D+00  0.000000D+00  0.000000D+00  0.100000D+01
     20  0.000000D+00  0.000000D+00  0.000000D+00  0.000000D+00  0.100000D+01
     21  0.000000D+00  0.000000D+00  0.000000D+00  0.000000D+00  0.000000D+00
               21 
     21  0.100000D+01
 Leave Link  716 at Tue Nov 21 11:50:41 2023, MaxMem=   104857600 cpu:               0.4 elap:               0.0
 (Enter /home/sekinelabo/g16/l103.exe)

 GradGradGradGradGradGradGradGradGradGradGradGradGradGradGradGradGradGrad
 Berny optimization.
 Search for a local minimum.
 Step number   1 out of a maximum of    2
 All quantities printed in internal units (Hartrees-Bohrs-Radians)
 Second derivative matrix not updated -- first step.
 ITU=  0
     Eigenvalues ---   -0.00000   0.00000   0.00000   0.00000   0.00000
     Eigenvalues ---    0.02014   0.02042   0.03714   0.03875   0.06347
     Eigenvalues ---    0.32447   0.71429   0.75533   0.94175   1.00000
 Eigenvalue     1 is  -6.66D-16 should be greater than     0.000000 Eigenvector:
                          Z6        Z2        Z3        X6        Y5
   1                    0.69326  -0.38157  -0.31990   0.29913   0.24484
                          X5        Y4        X3        X4        Z5
   1                   -0.23561  -0.16535  -0.11877   0.10889   0.06586
 Eigenvalue     2 is   0.00D+00 Eigenvector:
                          Z2        X5        X2        Z5        Y5
   1                    0.63201  -0.35430   0.33311  -0.29475   0.25069
                          X3        Z3        X4        Y4        Y2
   1                   -0.24171  -0.23349   0.21819  -0.15852  -0.13604
 Eigenvalue     3 is   0.00D+00 Eigenvector:
                          X3        X2        X5        X6        Y6
   1                    0.49562  -0.45285  -0.39054   0.30430  -0.28473
                          Z5        Z3        Y5        Z6        Z4
   1                   -0.27005   0.25196   0.22666  -0.13154   0.10444
 Eigenvalue     4 is   6.66D-16 Eigenvector:
                          Z4        Z3        Z6        Z5        X4
   1                    0.71275  -0.53479  -0.27068   0.20943   0.17007
                          Y6        Z2        Y3        X6        X5
   1                   -0.12055  -0.11670   0.11634  -0.07904  -0.07554
 Eigenvalue     5 is   1.33D-15 Eigenvector:
                          Z3        Z2        X2        X4        X3
   1                    0.49291  -0.42558   0.32077   0.31445  -0.25604
                          X5        Z4        Y2        Y4        Z6
   1                   -0.25567   0.23619   0.21904  -0.21218  -0.17355
 Angle between quadratic step and forces=  12.41 degrees.
 Linear search not attempted -- first point.
 B after Tr=     0.000000    0.000000    0.000000
         Rot=    1.000000    0.000000   -0.000000    0.000000 Ang=   0.00 deg.
 Variable       Old X    -DE/DX   Delta X   Delta X   Delta X     New X
                                 (Linear)    (Quad)   (Total)
    X1       18.40115  -0.00000   0.00000   0.00000   0.00000  18.40115
    Y1       54.18015  -0.00000   0.00000  -0.00000  -0.00000  54.18015
    Z1       53.06162   0.00000   0.00000  -0.00000  -0.00000  53.06162
    X2       17.79780  -0.00072   0.00000  -0.01721  -0.01721  17.78059
    Y2        2.88724   0.00562   0.00000   0.14408   0.14408   3.03132
    Z2       54.56055   0.00170   0.00000   0.04748   0.04748  54.60803
    X3       16.99669   0.00072   0.00000   0.01745   0.01745  17.01414
    Y3        9.10013  -0.00562   0.00000  -0.14448  -0.14448   8.95565
    Z3       56.44291  -0.00170   0.00000  -0.04718  -0.04718  56.39572
    X4       13.23201  -0.00069   0.00000  -0.04214  -0.04214  13.18987
    Y4       12.73776  -0.00068   0.00000  -0.04747  -0.04747  12.69029
    Z4        2.32810   0.00047   0.00000   0.02217   0.02217   2.35027
    X5        9.23949  -0.00061   0.00000  -0.01384  -0.01384   9.22566
    Y5        8.63234  -0.00101   0.00000  -0.02090  -0.02090   8.61144
    Z5        4.82638  -0.00015   0.00000  -0.00182  -0.00182   4.82456
    X6        5.24754   0.00130   0.00000   0.05573   0.05573   5.30327
    Y6        3.50334   0.00169   0.00000   0.06876   0.06876   3.57211
    Z6        5.91558  -0.00032   0.00000  -0.02064  -0.02064   5.89494
    X7        2.81720   0.00000   0.00000   0.00000   0.00000   2.81721
    Y7       56.64484  -0.00000   0.00000   0.00000   0.00000  56.64484
    Z7        9.88669  -0.00000   0.00000  -0.00000  -0.00000   9.88669
         Item               Value     Threshold  Converged?
 Maximum Force            0.005623     0.000450     NO 
 RMS     Force            0.001919     0.000300     NO 
 Maximum Displacement     0.144477     0.001800     NO 
 RMS     Displacement     0.053509     0.001200     NO 
 Predicted change in Energy=-1.052995D-03
 GradGradGradGradGradGradGradGradGradGradGradGradGradGradGradGradGradGrad

 Leave Link  103 at Tue Nov 21 11:50:41 2023, MaxMem=   104857600 cpu:               0.2 elap:               0.0
 (Enter /home/sekinelabo/g16/l9999.exe)
 1\1\GINC-SEKINELABO-XA7R-R37\Force\UB3LYP\6-311+G(d)\Na7(2)\SEKINELABO
 \21-Nov-2023\0\\#P B3LYP/6-311+g(d) force\\DPGEN\\0,2\Na,9.73747,28.67
 09,28.079\Na,9.41819,1.52786,28.8722\Na,8.99426,4.81558,29.8683\Na,7.0
 0208,6.74053,1.23198\Na,4.88933,4.56804,2.55401\Na,2.77688,1.85389,3.1
 3039\Na,1.4908,29.975156,5.23181\\Version=ES64L-G16RevB.01\State=2-A\H
 F=-1136.0675165\S2=1.779242\S2-1=0.\S2A=0.847006\RMSD=7.954e-09\RMSF=1
 .919e-03\Dipole=-0.004816,-0.0503189,-0.0609331\Quadrupole=-3.632813,7
 .4990556,-3.8662426,4.4287164,-2.2174692,2.1498015\PG=C01 [X(Na7)]\\@


 THERE ARE TWO THINGS THAT EVERYBODY THINKS THEY CAN DO BETTER THAN
 ANYONE ELSE - PUNCH THE FIRE, AND EDIT A DAILY PAPER.
 -- UNCLE ESEK, "CENTURY MAGAZINE", 1885
 Job cpu time:       0 days  0 hours 13 minutes 42.1 seconds.
 Elapsed time:       0 days  0 hours 10 minutes 23.1 seconds.
 File lengths (MBytes):  RWF=     46 Int=      0 D2E=      0 Chk=      4 Scr=      1
 Normal termination of Gaussian 16 at Tue Nov 21 11:50:41 2023.
