9.527813000000000088e+00 0.000000000000000000e+00 1.928401999999999950e+00 1.126989099999999944e+01 2.193267000000000078e+00 8.577270000000000172e-01 9.281252999999999531e+00 4.397489000000000203e+00 4.143490000000000228e-01 7.053283999999999665e+00 4.508237000000000272e+00 2.422771000000000008e+00 4.774250999999999578e+00 2.731050999999999895e+00 1.631674000000000069e+00 2.402500999999999998e+00 1.885788999999999938e+00 0.000000000000000000e+00 0.000000000000000000e+00 2.436126999999999931e+00 1.712758999999999920e+00
6.685864999999999725e+00 0.000000000000000000e+00 1.629917000000000060e+00 9.913762999999999437e+00 2.875694999999999890e+00 0.000000000000000000e+00 8.467931000000000097e+00 2.235402999999999807e+00 2.545479999999999965e+00 6.109777000000000236e+00 4.092464999999999797e+00 2.487152000000000029e+00 4.697872000000000270e+00 2.078040000000000109e+00 7.672949999999999493e-01 2.011829000000000089e+00 1.100424000000000069e+00 1.671408999999999923e+00 0.000000000000000000e+00 3.215110999999999830e+00 9.895009999999999639e-01
4.910649000000000264e+00 3.011300000000000088e-02 1.286437999999999970e+00 3.505920000000000147e+00 4.812731999999999566e+00 2.112817999999999863e+00 7.716432000000000180e+00 0.000000000000000000e+00 2.345543000000000156e+00 6.922907999999999618e+00 2.000300000000000189e+00 2.548949999999999827e-01 3.994439999999999991e+00 2.632451999999999792e+00 1.094740000000000019e-01 2.207018999999999842e+00 2.257850000000000135e-01 0.000000000000000000e+00 0.000000000000000000e+00 3.192090000000000205e-01 2.031695000000000029e+00
2.866518000000000121e+00 3.797311000000000103e+00 2.601563000000000070e+00 5.610001999999999711e+00 0.000000000000000000e+00 2.848348999999999798e+00 0.000000000000000000e+00 2.927379000000000175e+00 2.477338000000000040e+00 1.683932999999999902e+00 2.907061999999999813e+00 0.000000000000000000e+00 4.362321999999999811e+00 1.864419000000000048e+00 8.555800000000000072e-01 6.512667000000000428e+00 3.931845000000000034e+00 4.880059999999999953e-01 5.402689999999999770e+00 5.381518999999999942e+00 2.870925999999999867e+00
1.111779000000000073e+00 2.139936000000000060e+00 1.712838000000000083e+00 7.713140000000000107e+00 3.385771999999999782e+00 2.213509999999999922e-01 2.376973000000000003e+00 0.000000000000000000e+00 3.371500000000000191e-02 3.826379000000000197e+00 1.073803000000000063e+00 2.422671999999999937e+00 5.010294000000000025e+00 3.671409000000000145e+00 1.486081999999999903e+00 2.291802000000000117e+00 4.897136999999999851e+00 1.848781999999999925e+00 0.000000000000000000e+00 4.336623000000000339e+00 0.000000000000000000e+00
2.949237999999999804e+00 1.875896000000000008e+00 2.802455999999999836e+00 3.618055000000000021e+00 3.864673999999999943e+00 6.547359999999999847e-01 0.000000000000000000e+00 2.371196999999999999e+00 3.048354999999999926e+00 9.998430000000000373e-01 0.000000000000000000e+00 1.512261000000000077e+00 3.419278999999999957e+00 9.413909999999999778e-01 0.000000000000000000e+00 5.370375000000000121e+00 2.173390000000000044e-01 2.162806999999999924e+00 7.841652999999999984e+00 1.857863000000000042e+00 2.607340000000000213e+00
3.968847999999999931e+00 2.961800999999999906e+00 2.862750999999999824e+00 3.805541999999999980e+00 0.000000000000000000e+00 3.311983999999999817e+00 6.740942000000000434e+00 3.821174000000000071e+00 2.108724000000000043e+00 4.854197000000000095e+00 2.832654999999999923e+00 0.000000000000000000e+00 2.488900999999999808e+00 1.229003000000000068e+00 9.152709999999999457e-01 0.000000000000000000e+00 2.852427000000000046e+00 1.339350999999999958e+00 1.607502999999999904e+00 4.817851000000000106e+00 2.941335000000000033e+00
2.794712999999999781e+00 2.722571999999999992e+00 2.697062999999999988e+00 4.044876000000000360e+00 5.403857999999999606e+00 3.245505000000000084e+00 3.450740000000000141e+00 0.000000000000000000e+00 1.627831999999999946e+00 5.602024000000000115e+00 2.060411999999999910e+00 1.856891000000000069e+00 5.113667999999999658e+00 4.708273000000000152e+00 5.237190000000000456e-01 2.259609000000000201e+00 3.935652999999999846e+00 0.000000000000000000e+00 0.000000000000000000e+00 3.427456999999999976e+00 1.892217999999999956e+00
5.906431999999999682e+00 2.836974000000000107e+00 7.974419999999999842e-01 0.000000000000000000e+00 3.130767000000000078e+00 1.504500000000000004e-01 6.478061000000000291e+00 0.000000000000000000e+00 0.000000000000000000e+00 4.055995000000000239e+00 6.366849999999999454e-01 1.646773000000000042e+00 2.994812000000000030e+00 2.968169000000000057e+00 8.139699999999999713e-02 4.293951999999999991e+00 5.258856999999999893e+00 1.520964999999999900e+00 6.904417999999999722e+00 5.575870000000000104e+00 8.034700000000000175e-02
2.997939000000000132e+00 2.096290999999999904e+00 0.000000000000000000e+00 0.000000000000000000e+00 2.515195999999999987e+00 3.440409999999999857e-01 2.133652999999999800e+00 3.749422000000000033e+00 1.873761000000000010e+00 1.396867999999999999e+00 0.000000000000000000e+00 6.155299999999999661e-02 1.486083000000000043e+00 1.058302999999999994e+00 2.502971000000000057e+00 4.291699999999999626e+00 7.528049999999999464e-01 2.144762000000000057e+00 5.809429999999999872e+00 2.246376000000000150e+00 2.851929999999999743e-01
2.882842999999999822e+00 0.000000000000000000e+00 1.518639000000000072e+00 0.000000000000000000e+00 4.224930999999999770e+00 2.057261000000000006e+00 1.814891000000000032e+00 5.433966999999999992e+00 0.000000000000000000e+00 2.681769000000000069e+00 2.994056000000000051e+00 1.515528999999999904e+00 5.218092000000000397e+00 1.656354000000000104e+00 6.324729999999999519e-01 7.628134000000000192e+00 3.355593999999999966e+00 7.277300000000000435e-02 8.332971000000000572e+00 4.687851000000000212e+00 2.668989999999999974e+00
4.158730000000000260e+00 4.035294999999999632e+00 1.255340000000000067e-01 0.000000000000000000e+00 4.073459999999999859e-01 1.630611000000000033e+00 3.985480000000000134e-01 3.301470999999999822e+00 2.269296999999999898e+00 1.906965999999999939e+00 2.048980999999999941e+00 0.000000000000000000e+00 4.078719000000000428e+00 0.000000000000000000e+00 3.562629999999999963e-01 5.522612999999999772e+00 2.086330999999999936e+00 1.957767000000000035e+00 8.475443000000000282e+00 1.634093000000000018e+00 1.717192000000000052e+00
4.675245999999999569e+00 4.139434999999999754e+00 2.534063000000000176e+00 9.175338999999999245e+00 3.555219000000000129e+00 0.000000000000000000e+00 7.406365000000000087e+00 2.913749000000000144e+00 2.333382999999999985e+00 6.688145999999999702e+00 0.000000000000000000e+00 2.300536999999999832e+00 4.223216999999999999e+00 5.084400000000000031e-02 5.904770000000000296e-01 2.531442000000000192e+00 2.117941000000000074e+00 1.961198999999999915e+00 0.000000000000000000e+00 3.185684000000000182e+00 7.650749999999999496e-01
4.603297999999999668e+00 4.442757000000000289e+00 5.183800000000000213e-02 1.181180000000000008e-01 3.747726999999999808e+00 1.972629999999999939e-01 0.000000000000000000e+00 7.624119999999999786e-01 0.000000000000000000e+00 2.659377999999999798e+00 2.155025000000000190e+00 1.046740000000000032e-01 4.751260000000000261e+00 0.000000000000000000e+00 1.468740000000000046e-01 7.642525000000000013e+00 7.914989999999999526e-01 1.241300000000000042e-01 7.531270000000000131e+00 3.785661000000000165e+00 6.896299999999999653e-02
1.796199999999999880e-02 5.522654000000000174e+00 4.916849999999999832e-01 7.656093000000000259e+00 1.244857000000000102e+00 7.837100000000000177e-01 8.034530000000000172e+00 4.194221999999999895e+00 1.167912999999999979e+00 5.474579000000000306e+00 3.152238000000000095e+00 0.000000000000000000e+00 2.664588999999999874e+00 4.121914000000000300e+00 4.179010000000000224e-01 2.791719999999999757e-01 2.751428000000000207e+00 1.612929999999999975e+00 0.000000000000000000e+00 0.000000000000000000e+00 4.454710000000000059e-01
2.236765000000000114e+00 0.000000000000000000e+00 1.112470999999999988e+00 9.729463000000000861e+00 1.192055000000000087e+00 2.570288000000000128e+00 9.426401000000000252e+00 2.700493999999999950e+00 0.000000000000000000e+00 7.196613000000000149e+00 2.695631000000000110e+00 2.003817000000000181e+00 4.266873000000000360e+00 2.141322000000000170e+00 1.660484000000000071e+00 2.032512000000000096e+00 4.136878000000000277e+00 1.863153000000000059e+00 0.000000000000000000e+00 1.980547000000000057e+00 1.381191999999999975e+00
0.000000000000000000e+00 1.583070000000000033e-01 2.823256999999999906e+00 6.077187000000000339e+00 0.000000000000000000e+00 3.013310000000000155e-01 7.610472999999999821e+00 1.523390000000000022e+00 2.383163999999999838e+00 5.151650000000000063e+00 2.721893000000000118e+00 1.154544999999999932e+00 2.605608000000000146e+00 4.293876000000000026e+00 9.267419999999999547e-01 7.745299999999999407e-02 2.707317000000000196e+00 1.243160999999999961e+00 1.007635000000000058e+00 1.387130000000000030e-01 0.000000000000000000e+00
8.134005000000000152e+00 0.000000000000000000e+00 2.430212000000000039e+00 8.284423999999999566e+00 1.750107999999999997e+00 0.000000000000000000e+00 9.916641999999999513e+00 2.412935000000000052e+00 2.427119999999999944e+00 6.934395000000000309e+00 2.748505999999999894e+00 2.484925000000000050e+00 3.984337000000000018e+00 3.239174999999999915e+00 2.226163000000000114e+00 1.067819000000000074e+00 3.037596000000000185e+00 1.553724000000000105e+00 0.000000000000000000e+00 2.622979999999999756e-01 1.956007999999999969e+00
6.731180000000000163e+00 0.000000000000000000e+00 2.545409999999999950e+00 8.020068000000000197e+00 9.366689999999999738e-01 0.000000000000000000e+00 8.614468000000000458e+00 2.334639000000000131e+00 2.578898000000000135e+00 6.594051000000000329e+00 3.487127999999999783e+00 6.829070000000000418e-01 4.403480000000000061e+00 1.681831000000000076e+00 1.666767000000000110e+00 1.857232999999999912e+00 7.742660000000000098e-01 3.711280000000000134e-01 0.000000000000000000e+00 2.277146999999999810e+00 2.181535999999999920e+00
4.629438999999999638e+00 0.000000000000000000e+00 2.162192000000000114e+00 6.933487000000000400e+00 1.799136999999999986e+00 2.847373000000000154e+00 6.439321999999999768e+00 1.025047999999999959e+00 0.000000000000000000e+00 6.006381000000000192e+00 3.861194999999999933e+00 8.733889999999999709e-01 3.299056999999999906e+00 4.529617000000000004e+00 1.977022999999999975e+00 2.273178000000000143e+00 1.793487000000000053e+00 2.667060000000000208e+00 0.000000000000000000e+00 1.494461000000000039e+00 7.329510000000000192e-01
5.399456999999999951e+00 5.056300000000000239e-01 1.712215999999999960e+00 5.922223999999999933e+00 3.175549000000000177e+00 2.976820000000000022e+00 6.076456000000000301e+00 2.875769000000000020e+00 0.000000000000000000e+00 3.941564000000000068e+00 4.594619999999999926e+00 1.225240000000000107e+00 9.607050000000000312e-01 4.531443999999999583e+00 1.550788999999999973e+00 0.000000000000000000e+00 1.689872999999999958e+00 1.520577000000000067e+00 2.469231000000000176e+00 0.000000000000000000e+00 1.307199999999999918e+00
3.637108000000000008e+00 0.000000000000000000e+00 7.813510000000000177e-01 6.625221999999999944e+00 1.123689999999999967e-01 5.087249999999999828e-01 8.449125999999999692e+00 1.589639000000000024e+00 2.375404000000000071e+00 6.576152999999999693e+00 3.109678000000000164e+00 5.989219999999999544e-01 3.605954999999999799e+00 2.944439000000000028e+00 1.915580000000000060e-01 1.075622999999999996e+00 1.344437000000000104e+00 0.000000000000000000e+00 0.000000000000000000e+00 1.804707999999999979e+00 2.764190000000000147e+00
5.228886000000000145e+00 3.041043999999999858e+00 2.223246000000000056e+00 2.482416999999999874e+00 3.066012999999999877e+00 1.005076000000000080e+00 0.000000000000000000e+00 1.634894999999999987e+00 1.283150000000000124e-01 2.278404999999999792e+00 8.848599999999999521e-02 1.301392000000000104e+00 5.141960000000000086e+00 3.503599999999999770e-02 2.191756999999999955e+00 7.192074999999999996e+00 0.000000000000000000e+00 0.000000000000000000e+00 7.490911999999999793e+00 2.972687000000000079e+00 2.536499999999999866e-01
3.904183999999999877e+00 0.000000000000000000e+00 1.462123000000000062e+00 8.092107999999999635e+00 6.893038999999999916e+00 8.440569999999999462e-01 7.902533000000000030e+00 4.142972999999999573e+00 2.024366000000000110e+00 6.472580999999999918e+00 1.550302000000000069e+00 1.544705999999999912e+00 4.128658999999999857e+00 2.607876999999999779e+00 0.000000000000000000e+00 2.716795999999999989e+00 4.616431000000000395e+00 1.728229000000000015e+00 0.000000000000000000e+00 5.870255000000000223e+00 1.506588000000000038e+00
1.738458000000000059e+00 0.000000000000000000e+00 0.000000000000000000e+00 4.718227999999999867e+00 9.325700000000000656e-02 3.462899999999999867e-01 7.327812999999999910e+00 8.746319999999999650e-01 1.596770000000000023e+00 5.158389999999999809e+00 2.919941999999999815e+00 1.262032000000000043e+00 2.482559000000000182e+00 4.255112999999999701e+00 1.005433000000000021e+00 1.193310000000000065e-01 2.444179999999999797e+00 6.302809999999999802e-01 0.000000000000000000e+00 5.889400000000000190e-02 2.442264000000000213e+00
2.625593999999999983e+00 3.591711999999999794e+00 0.000000000000000000e+00 5.745034999999999670e+00 2.885249999999999759e-01 1.861019999999999897e+00 7.953848999999999947e+00 2.309134999999999938e+00 1.725835000000000008e+00 5.092565999999999704e+00 3.210875999999999841e+00 1.662835000000000063e+00 2.732553999999999927e+00 4.685842000000000063e+00 2.787746999999999975e+00 4.218689999999999940e-01 2.967696999999999807e+00 1.939435000000000020e+00 0.000000000000000000e+00 0.000000000000000000e+00 1.795249000000000095e+00
3.001841999999999899e+00 2.965754000000000001e+00 1.094945000000000057e+00 7.386521000000000114e+00 3.010009000000000157e+00 0.000000000000000000e+00 8.198575999999999198e+00 2.966500000000000248e-01 9.828160000000000229e-01 5.487333999999999712e+00 1.385739999999999972e+00 1.659308999999999923e+00 3.029795000000000016e+00 0.000000000000000000e+00 6.467309999999999448e-01 3.828899999999999665e-02 7.830000000000000154e-03 4.066589999999999927e-01 0.000000000000000000e+00 2.952421000000000184e+00 9.928740000000000343e-01
4.528768999999999600e+00 4.039930000000000021e+00 1.981219000000000063e+00 2.015889999999999904e-01 2.641430999999999862e+00 0.000000000000000000e+00 0.000000000000000000e+00 3.962072000000000038e+00 2.680468999999999991e+00 2.258236999999999828e+00 2.075593000000000021e+00 2.106704000000000132e+00 4.404225000000000279e+00 0.000000000000000000e+00 2.442439999999999944e+00 6.214026999999999745e+00 1.816144999999999898e+00 8.784859999999999891e-01 7.475043999999999578e+00 4.440029000000000003e+00 1.594432999999999989e+00
8.237572999999999368e+00 9.932360000000000078e-01 8.377599999999999492e-01 0.000000000000000000e+00 1.903666999999999998e+00 4.953949999999999743e-01 2.066774999999999807e+00 3.273998000000000186e+00 2.176235999999999837e+00 2.598001000000000005e+00 5.258880000000000221e-01 1.098966000000000109e+00 5.511426000000000158e+00 0.000000000000000000e+00 1.605347999999999997e+00 6.557401999999999731e+00 2.577498999999999985e+00 2.739669000000000132e+00 7.136068999999999996e+00 3.656820999999999877e+00 0.000000000000000000e+00
4.788984000000000130e+00 2.145160000000000122e-01 2.233725000000000183e+00 7.615965000000000096e+00 1.099369999999999958e+00 2.704928999999999917e+00 6.784055999999999642e+00 1.180989999999999956e-01 0.000000000000000000e+00 5.793237999999999666e+00 2.761896999999999824e+00 1.003085000000000004e+00 3.024001999999999857e+00 3.908364000000000171e+00 1.187869999999999981e+00 2.072118999999999822e+00 1.440979999999999928e+00 2.613364999999999938e+00 0.000000000000000000e+00 0.000000000000000000e+00 9.894739999999999647e-01
4.718659999999999854e+00 8.752199999999999980e-01 2.230850000000000222e+00 7.295080999999999705e+00 2.289601000000000219e+00 2.818302000000000085e+00 6.281124000000000152e+00 2.134342000000000183e+00 0.000000000000000000e+00 4.875173000000000201e+00 3.862191999999999847e+00 2.006686000000000192e+00 1.966749999999999998e+00 4.596213999999999800e+00 1.864351000000000091e+00 0.000000000000000000e+00 2.340021000000000129e+00 1.664617999999999931e+00 1.870392000000000055e+00 0.000000000000000000e+00 1.860392999999999963e+00
5.232187999999999839e+00 0.000000000000000000e+00 1.470134999999999970e+00 7.844769000000000325e+00 1.811530000000000085e-01 0.000000000000000000e+00 7.801794000000000118e+00 3.308139999999999969e-01 2.989120000000000221e+00 7.964299999999999713e+00 2.852676999999999907e+00 1.366330000000000044e+00 4.965225000000000222e+00 2.993441999999999936e+00 1.363161000000000067e+00 2.678697999999999801e+00 1.313101000000000074e+00 2.319358999999999948e+00 0.000000000000000000e+00 9.816259999999999986e-01 1.019749000000000017e+00
3.407275999999999971e+00 3.000738000000000127e+00 1.779196000000000000e+00 6.123228000000000115e+00 2.554120000000000168e+00 2.968074000000000101e+00 5.795865000000000045e+00 2.648206000000000060e+00 0.000000000000000000e+00 5.944847000000000214e+00 0.000000000000000000e+00 1.403178999999999954e+00 2.956202999999999914e+00 2.688600000000000018e-02 1.720048999999999939e+00 0.000000000000000000e+00 4.789059999999999984e-01 1.495780000000000109e+00 4.516640000000000099e-01 3.444503999999999788e+00 1.509900999999999938e+00
1.732353000000000032e+00 2.811700000000000088e+00 1.689114000000000004e+00 0.000000000000000000e+00 1.035840000000000094e+00 0.000000000000000000e+00 1.165313000000000043e+00 0.000000000000000000e+00 2.562952999999999815e+00 3.992513000000000201e+00 8.787000000000000366e-01 2.085128000000000092e+00 6.675495999999999874e+00 1.380149999999999988e+00 8.449600000000000444e-01 9.286811000000000149e+00 2.213335999999999970e+00 2.066478000000000037e+00 1.139796899999999980e+01 3.936450000000000227e-01 9.505909999999999638e-01
2.419157999999999920e+00 4.522732000000000419e+00 1.787697000000000092e+00 5.069093999999999767e+00 3.418045999999999918e+00 2.670701000000000214e+00 4.819401000000000046e+00 4.741387999999999714e+00 0.000000000000000000e+00 5.226664000000000421e+00 1.772890000000000077e+00 1.647699999999999998e-01 2.870871000000000173e+00 0.000000000000000000e+00 7.347650000000000015e-01 9.411920000000000286e-01 1.917647000000000101e+00 2.003378000000000103e+00 0.000000000000000000e+00 4.020730000000000359e+00 8.878300000000000081e-02
4.463525999999999883e+00 1.321080999999999950e+00 0.000000000000000000e+00 7.065180999999999933e+00 0.000000000000000000e+00 7.010370000000000212e-01 8.623998000000000275e+00 1.334224999999999994e+00 2.889930999999999806e+00 6.671712000000000309e+00 2.919636000000000120e+00 1.256186000000000025e+00 3.857232999999999912e+00 3.959923999999999999e+00 1.278923000000000032e+00 2.852862000000000009e+00 1.424372999999999889e+00 2.532442000000000082e+00 0.000000000000000000e+00 7.761120000000000241e-01 1.864997999999999934e+00
2.307739999999999903e+00 2.948783999999999850e+00 0.000000000000000000e+00 4.692091999999999707e+00 3.540674000000000099e+00 1.722658999999999940e+00 5.418879999999999697e+00 9.346619999999999928e-01 3.013014000000000081e+00 4.581693999999999711e+00 1.002955000000000041e+00 1.350540000000000074e-01 1.755228999999999928e+00 0.000000000000000000e+00 1.343270000000000020e-01 1.078019999999999951e-01 4.780079999999999885e-01 2.599054000000000197e+00 0.000000000000000000e+00 3.388990000000000169e+00 1.875256000000000034e+00
2.847494999999999887e+00 1.475660000000000027e-01 1.631094999999999962e+00 5.610437000000000118e+00 0.000000000000000000e+00 4.721099999999999741e-01 7.744284000000000390e+00 1.876522999999999941e+00 1.426061000000000023e+00 4.978552999999999784e+00 2.045659000000000116e+00 2.567493999999999943e+00 3.470749000000000084e+00 4.331368999999999581e+00 1.327333000000000096e+00 1.636535999999999991e+00 2.358359000000000094e+00 0.000000000000000000e+00 0.000000000000000000e+00 9.647480000000000500e-01 2.089141000000000137e+00
5.361350999999999978e+00 2.686455000000000037e+00 2.584617999999999860e+00 2.669760000000000133e+00 3.829496999999999929e+00 1.886168999999999984e+00 0.000000000000000000e+00 3.549424000000000134e+00 5.536440000000000250e-01 1.645494999999999930e+00 1.113757000000000108e+00 1.131623999999999963e+00 4.382207000000000185e+00 0.000000000000000000e+00 1.672814000000000023e+00 6.347446999999999839e+00 1.529859000000000080e+00 0.000000000000000000e+00 7.253090000000000259e+00 4.254480000000000040e+00 8.629130000000000411e-01
5.769662000000000290e+00 2.552830999999999850e+00 0.000000000000000000e+00 0.000000000000000000e+00 2.000078999999999940e+00 9.719250000000000389e-01 1.586279999999999912e+00 4.287791000000000352e+00 2.091725999999999974e+00 2.996506000000000114e+00 1.898010999999999893e+00 9.520149999999999446e-01 5.261387000000000036e+00 0.000000000000000000e+00 1.485144000000000020e+00 7.656113999999999642e+00 1.675497000000000014e+00 2.160861999999999838e+00 7.848840000000000039e+00 4.449233999999999689e+00 1.037751000000000090e+00
5.598385000000000389e+00 2.557908999999999988e+00 9.001500000000000057e-01 7.866935999999999929e+00 3.051368000000000080e+00 2.803952000000000222e+00 8.431345999999999563e+00 2.144820000000000171e+00 0.000000000000000000e+00 7.191037999999999819e+00 2.531399999999999761e-01 1.966566000000000036e+00 4.219590000000000174e+00 0.000000000000000000e+00 1.638670999999999989e+00 2.811205999999999872e+00 2.623889000000000138e+00 2.011712000000000167e+00 0.000000000000000000e+00 2.083632000000000151e+00 1.107561000000000018e+00
3.853394000000000208e+00 2.623708999999999847e+00 2.592118999999999840e+00 6.851002000000000258e+00 2.632877999999999830e+00 2.585408000000000150e+00 5.350704999999999600e+00 2.829679000000000055e+00 0.000000000000000000e+00 5.355006999999999628e+00 2.559020000000000183e-01 1.536108999999999947e+00 2.441320000000000157e+00 0.000000000000000000e+00 2.198707999999999885e+00 0.000000000000000000e+00 1.473181000000000074e+00 1.256531999999999982e+00 1.269482999999999917e+00 4.068101000000000411e+00 2.070375999999999994e+00
2.771043000000000145e+00 3.757334000000000174e+00 2.155464999999999964e+00 5.602420999999999651e+00 2.997484000000000037e+00 2.778462999999999905e+00 4.858730000000000437e+00 3.836631999999999820e+00 0.000000000000000000e+00 3.913011000000000017e+00 1.199669000000000096e+00 1.073399999999999910e+00 1.158585999999999894e+00 0.000000000000000000e+00 1.112897000000000025e+00 0.000000000000000000e+00 2.611591999999999913e+00 2.030689999999999884e+00 5.013119999999999798e-01 5.422241999999999784e+00 1.119018999999999986e+00
2.956227000000000160e+00 2.877264999999999961e+00 1.166944999999999899e+00 5.348898000000000152e+00 3.158678000000000097e+00 2.958988000000000174e+00 5.666832000000000313e+00 3.446492999999999807e+00 0.000000000000000000e+00 6.314620999999999817e+00 8.317020000000000524e-01 1.327908000000000088e+00 3.540487000000000162e+00 0.000000000000000000e+00 5.232980000000000409e-01 1.057552000000000048e+00 7.287139999999999729e-01 2.034517999999999827e+00 0.000000000000000000e+00 3.290570000000000217e+00 8.961170000000000524e-01
3.049818999999999836e+00 1.502999999999999996e-02 1.708148000000000000e+00 5.332654999999999923e+00 1.536211999999999911e+00 1.990337999999999941e+00 2.971692000000000000e+00 2.957034000000000162e+00 2.030739000000000072e+00 0.000000000000000000e+00 3.000046000000000213e+00 2.089646999999999810e+00 4.853699999999999681e-02 0.000000000000000000e+00 1.885672000000000015e+00 1.450374000000000052e+00 1.201116999999999990e+00 3.748861000000000221e+00 1.396687000000000012e+00 1.624044000000000043e+00 0.000000000000000000e+00
2.783058000000000032e+00 2.918950999999999851e+00 1.700490999999999975e+00 5.551721999999999824e+00 4.069808000000000092e+00 1.814230999999999927e+00 7.105488000000000248e+00 1.517849999999999921e+00 2.088147999999999893e+00 4.963321999999999790e+00 1.757535000000000069e+00 0.000000000000000000e+00 2.751022999999999996e+00 0.000000000000000000e+00 1.014300999999999897e+00 4.801739999999999897e-01 1.204163000000000094e+00 2.562301999999999857e+00 0.000000000000000000e+00 3.578656000000000059e+00 7.905299999999999550e-01
2.814967000000000219e+00 1.946993999999999891e+00 1.739948999999999968e+00 5.616291000000000366e+00 1.658720999999999890e+00 2.782652000000000125e+00 4.954400999999999833e+00 7.574849999999999639e-01 0.000000000000000000e+00 5.006469000000000058e+00 3.683199000000000112e+00 6.543330000000000535e-01 2.291428999999999938e+00 4.845936000000000021e+00 1.167340999999999962e+00 0.000000000000000000e+00 2.928465999999999791e+00 1.413486999999999938e+00 5.956350000000000255e-01 0.000000000000000000e+00 1.184069000000000038e+00
6.500591000000000008e+00 3.680292000000000119e+00 2.198593999999999937e+00 5.064046000000000269e+00 0.000000000000000000e+00 3.458937999999999846e+00 7.802227000000000245e+00 1.048588000000000076e+00 2.820759999999999934e+00 7.028567999999999927e+00 3.693409999999999749e-01 0.000000000000000000e+00 4.551370999999999611e+00 1.710334000000000021e+00 1.043369999999999909e+00 1.928271000000000068e+00 2.844225999999999921e+00 1.936552999999999969e+00 0.000000000000000000e+00 5.613700000000000356e-01 1.807060000000000111e+00
2.967461000000000126e+00 0.000000000000000000e+00 8.424399999999999944e-02 7.261064000000000185e+00 7.750430000000000375e-01 1.915696000000000065e+00 8.992295999999999623e+00 3.029316999999999815e+00 9.569170000000000176e-01 6.504547999999999774e+00 4.577509000000000050e+00 3.011170000000000235e-01 4.790770000000000195e+00 2.203997000000000206e+00 9.785679999999999934e-01 2.029736000000000207e+00 2.842891999999999975e+00 0.000000000000000000e+00 0.000000000000000000e+00 3.556608000000000214e+00 2.089332000000000189e+00
2.068249999999999922e+00 3.692893000000000203e+00 1.955716999999999928e+00 6.612320999999999671e+00 3.663790000000000102e+00 3.796610000000000262e-01 8.501967000000000496e+00 1.458445999999999909e+00 1.125197999999999920e+00 6.169940000000000424e+00 0.000000000000000000e+00 2.314022000000000023e+00 4.259561999999999848e+00 1.892506000000000022e+00 9.768900000000000361e-01 2.131950999999999929e+00 1.191000000000000045e-02 0.000000000000000000e+00 0.000000000000000000e+00 1.600656999999999996e+00 1.381977999999999929e+00
1.615696000000000021e+00 0.000000000000000000e+00 2.107282000000000100e+00 0.000000000000000000e+00 1.404222000000000081e+00 3.030300000000000007e-02 4.927320000000000033e-01 2.721414000000000222e+00 2.684935999999999989e+00 2.409619000000000177e+00 4.378340999999999816e+00 1.073239000000000054e+00 2.997069999999999901e+00 1.632508000000000070e+00 0.000000000000000000e+00 5.641077000000000119e+00 1.505459000000000103e+00 1.411972000000000005e+00 8.597400999999999627e+00 1.986056999999999961e+00 1.353633000000000086e+00
2.391164999999999985e+00 4.453865999999999659e+00 2.298189999999999955e-01 9.517809999999999881e-01 3.540611000000000175e+00 2.699346999999999941e+00 0.000000000000000000e+00 2.661721000000000004e+00 0.000000000000000000e+00 1.286586999999999925e+00 0.000000000000000000e+00 5.229669999999999597e-01 2.947995000000000143e+00 1.295164999999999900e+00 2.661734000000000044e+00 4.846106999999999942e+00 3.339398000000000089e+00 1.551712999999999898e+00 7.343759000000000370e+00 2.026342000000000088e+00 5.506440000000000223e-01
3.310223999999999833e+00 4.399812999999999974e+00 1.203057000000000043e+00 3.747104000000000212e+00 2.422594000000000136e+00 3.415700000000000180e+00 5.918304000000000009e+00 2.938699000000000172e+00 1.418706999999999940e+00 5.171960999999999586e+00 4.011799999999999811e-01 0.000000000000000000e+00 2.862321000000000115e+00 0.000000000000000000e+00 1.876829000000000081e+00 0.000000000000000000e+00 8.527430000000000287e-01 1.602081000000000088e+00 5.029320000000000457e-01 3.601475999999999900e+00 5.071210000000000440e-01
7.372520999999999880e+00 2.732981000000000105e+00 0.000000000000000000e+00 7.037627999999999773e+00 0.000000000000000000e+00 1.189270000000000049e+00 8.610227999999999327e+00 8.485150000000000192e-01 3.605687000000000086e+00 7.478278999999999677e+00 3.537745999999999835e+00 2.890581000000000067e+00 5.046208000000000027e+00 2.163981000000000154e+00 1.793644000000000016e+00 2.231775999999999982e+00 2.958775000000000155e+00 2.448199999999999932e+00 0.000000000000000000e+00 9.947639999999999816e-01 2.071441999999999783e+00
1.360956999999999972e+00 3.940256000000000203e+00 1.917537999999999965e+00 2.031797000000000075e+00 2.039860000000000007e+00 3.725792999999999910e+00 1.871461000000000041e+00 1.786879000000000106e+00 0.000000000000000000e+00 0.000000000000000000e+00 1.196974999999999900e+00 1.857056999999999958e+00 2.807275999999999883e+00 0.000000000000000000e+00 2.124897999999999954e+00 4.120859000000000272e+00 2.701458999999999833e+00 1.758580999999999950e+00 6.820001999999999676e+00 1.876335000000000086e+00 1.834176999999999946e+00
2.953809999999999825e+00 9.354679999999999662e-01 1.732382000000000088e+00 0.000000000000000000e+00 1.396579000000000015e+00 1.507729000000000097e+00 1.917510000000000048e+00 3.350997000000000003e+00 2.900179999999999980e-01 4.057176000000000116e+00 5.404498000000000246e+00 7.523360000000000047e-01 6.663827000000000389e+00 4.408121000000000400e+00 1.851337999999999928e+00 5.849876000000000076e+00 1.543855999999999895e+00 2.239557000000000020e+00 7.118147999999999698e+00 0.000000000000000000e+00 0.000000000000000000e+00
3.037383000000000166e+00 0.000000000000000000e+00 1.904781000000000057e+00 4.309890000000000221e+00 1.943324999999999969e+00 0.000000000000000000e+00 6.575244999999999784e+00 2.100827000000000222e+00 1.960094000000000003e+00 4.166964000000000112e+00 2.086507000000000112e+00 3.749559999999999782e+00 2.954292000000000140e+00 3.973167999999999811e+00 1.751781000000000033e+00 0.000000000000000000e+00 3.511667000000000094e+00 1.890584000000000042e+00 8.897700000000000053e-02 5.176049999999999818e-01 1.873496999999999968e+00