-3.091488169903238304e+04
-3.091472908451685362e+04
-3.091477663423740523e+04
-3.091483370168452893e+04
-3.091502007491795302e+04
-3.091468462573766374e+04
-3.091489878968774792e+04
-3.091518469700189235e+04
-3.091488612088264563e+04
-3.091391865732427323e+04
-3.091491163699953177e+04
-3.091487194483886924e+04
-3.091481424173376945e+04
-3.091492252373094016e+04
-3.091461370116420949e+04
-3.091465129968081237e+04
-3.091479530342528597e+04
-3.091433237080522667e+04
-3.091440680428693668e+04
-3.091483949907036731e+04
-3.091481980673436919e+04
-3.091480509544262532e+04
-3.091490681568611762e+04
-3.091477082623912793e+04
-3.091497301255332422e+04
-3.091466031998323888e+04
-3.091474378655672626e+04
-3.091490585702897806e+04
-3.091469522865431645e+04
-3.091458886941369201e+04
-3.091459867748574470e+04
-3.091450804914751643e+04
-3.091464152970469877e+04
-3.091465576642986707e+04
-3.091506714163639481e+04
-3.091483478959574859e+04
-3.091488735872860707e+04
-3.091474630088881531e+04
-3.091498662504929234e+04
-3.091475130805599838e+04
-3.091447514677194704e+04
-3.091463786378674195e+04
-3.091494481339375852e+04
-3.091472537206742345e+04
-3.091392451702418839e+04
-3.091464175011691987e+04
-3.091482993181907659e+04
-3.091453995014406973e+04
-3.091476715787214926e+04
-3.091465743312727500e+04
-3.091459334813574969e+04
-3.091485426995504895e+04
-3.091507703297529952e+04
-3.091451552683645423e+04
-3.091398577937861046e+04
-3.091489316155672714e+04
-3.091488292055151032e+04
-3.091494393419386688e+04
-3.091452622363239061e+04
-3.091443823180536492e+04
-3.091475525615602965e+04
-3.091495717988035176e+04
-3.091481425370677607e+04
-3.091492247692735691e+04
-3.091431331004550520e+04
-3.091502029396961007e+04
-3.091446811861510650e+04
-3.091490672316740529e+04
-3.091480599341836569e+04
-3.091361145138599750e+04
-3.091470459916727850e+04
-3.091506333911728507e+04
-3.091485519623063374e+04
-3.091473597090236581e+04
-3.091486723808539318e+04
-3.091483221512649834e+04
-3.091482075069735583e+04
-3.091479209928455020e+04
-3.091480769739537573e+04
-3.091510097464137652e+04
-3.091481474623286704e+04
-3.091488605503109648e+04
-3.091496722550781487e+04
-3.091480448291432185e+04
-3.091476583022860723e+04
-3.091512873950721769e+04
-3.091483165674885458e+04
-3.091493439143282740e+04
-3.091502249319384646e+04
-3.091506404606909564e+04
-3.091494619926966334e+04
-3.091463409881933694e+04
-3.091503127675721043e+04
-3.091482009082123841e+04
-3.091504161055324948e+04
-3.091499453104545682e+04
-3.091488961237561671e+04
-3.091499769790658684e+04
-3.091501161108837550e+04
-3.091515338431551208e+04
-3.091499914473599347e+04
-3.091500025523266595e+04
-3.091509576338879197e+04
-3.091485254556950531e+04
-3.091486055905063768e+04
-3.091488354695762609e+04
-3.091470263804267233e+04
-3.091478921814297428e+04
-3.091358679950274018e+04
-3.091482643161846136e+04
-3.091491144624771550e+04
-3.091480228994869685e+04
-3.091496629950433999e+04
-3.091461428484844146e+04
-3.091457842677210647e+04
-3.091478781566812904e+04
-3.091512764343257732e+04
-3.091396771700464888e+04
-3.091458918234463272e+04
-3.091424635180370751e+04
-3.091493860620443957e+04
-3.091471701980453145e+04
-3.091491429419139968e+04
-3.091512456691325133e+04
-3.091468677162757740e+04
-3.091382899172488396e+04
-3.091479931683263567e+04
-3.091504622587647464e+04
-3.091475293475266881e+04
-3.091482478886707759e+04
-3.091501709581538671e+04
-3.091488338695467246e+04
-3.091479401224500543e+04
-3.091456445780697322e+04
-3.091481716505299482e+04
-3.091471077288659581e+04
-3.091471753573241585e+04
-3.091461377681186423e+04
-3.091501525442087586e+04
-3.091451106008740317e+04
-3.091503611766282847e+04
-3.091475658026208475e+04
-3.091514111361299729e+04
-3.091496026320252349e+04
-3.091461245842019707e+04
-3.091488230421361732e+04
-3.091499778770416015e+04
-3.091487617838634105e+04
-3.091481894222862684e+04
-3.091437353727879599e+04
-3.091429404819363481e+04
-3.091480149537622128e+04
-3.091453546217012990e+04
-3.091466680309600997e+04
-3.091466464496096523e+04
-3.091496462654830975e+04
-3.091462149151197445e+04
-3.091474808513941389e+04
-3.091490934879406632e+04
-3.091471617189773679e+04
-3.091444444851866865e+04
-3.091461569004442936e+04
-3.091497258424610482e+04
-3.091481272442686895e+04
-3.091468747395346145e+04
-3.091464987434840441e+04
-3.091481758220354459e+04
-3.091492360619988540e+04
-3.091488856337667676e+04
-3.091471181181731663e+04
-3.091510128104158139e+04
-3.091483671262441203e+04
-3.091502616319351000e+04
-3.091461577412761471e+04
-3.091500942628616758e+04
-3.091511224151584611e+04
-3.091503128519274469e+04
-3.091491756091831485e+04
-3.091491346887005420e+04
-3.091371156506924672e+04
-3.091488872827767773e+04
-3.091489034463402277e+04
-3.091510006795798472e+04
-3.091508608838041255e+04
-3.091494595790466337e+04
-3.091493979452567874e+04
-3.091269680349563714e+04
-3.091498156890161408e+04
-3.091502352668230014e+04
-3.091483889443336739e+04
-3.091485773015492668e+04
-3.091496567092131227e+04
-3.091493057857338499e+04
-3.091515191326796776e+04
-3.091505522631458734e+04
-3.091506350483462666e+04
-3.091498338335684821e+04
-3.091509244414390196e+04
-3.091497910627116289e+04
-3.091510965997163657e+04
-3.091498067827294653e+04
-3.091477482767347101e+04
-3.091504561634142010e+04
-3.091495388213244951e+04
-3.091489190847239297e+04
-3.091480521952654453e+04
-3.091465291249967777e+04
-3.091480381487478735e+04
-3.091507886783907088e+04
-3.091455562499100051e+04
-3.091478554351737330e+04
-3.091500936451632515e+04
-3.091400687255677622e+04
-3.091375298705773457e+04
-3.091483365787419461e+04
-3.091426187127362937e+04
-3.091480427420298656e+04
-3.091483607206838133e+04
-3.091435406426657210e+04
-3.091508140802197886e+04
-3.091493212853394652e+04
-3.091424953716858363e+04
-3.091512787989952267e+04
-3.091459022181958790e+04
-3.091477209673875404e+04
-3.091446172421145820e+04
-3.091488730457795464e+04
-3.091486698556372721e+04
-3.091467029213995920e+04
-3.091507927492140880e+04
-3.091439920469098433e+04
-3.091469053877189071e+04
-3.091485063832344167e+04
-3.091437315904052957e+04
-3.091485762239783071e+04
-3.091442952361754215e+04
-3.091457889018201240e+04
-3.091436971680016723e+04
-3.091477125917228113e+04
-3.091491766296101923e+04
-3.091489941418905801e+04
-3.091499510792684305e+04
-3.091495428948690460e+04
-3.091436049214022933e+04
-3.091492177106400050e+04
-3.091476491402123429e+04
-3.091502232012942841e+04
-3.091478153255904544e+04
-3.091372436394476972e+04
-3.091485181467167058e+04
-3.091489853526128354e+04
-3.091483880218676495e+04
-3.091513497227523476e+04
-3.091442386473765509e+04
-3.091510328325538649e+04
-3.091501810726260737e+04
-3.091496431525005028e+04
-3.091416514404739428e+04
-3.091412389512332447e+04
-3.091438025794696659e+04
-3.091505312341866011e+04
-3.091459008685111257e+04
-3.091489073974335042e+04
-3.091477148584312454e+04
-3.091473322064755848e+04
-3.091456232416217608e+04
-3.091457496738857299e+04
-3.091473801447747246e+04
-3.091462258432124872e+04
-3.091419470894644110e+04
-3.091499891289497828e+04
-3.091450179379404653e+04
-3.091468686958857143e+04
-3.091507955030064113e+04
-3.091477828079838946e+04
-3.091495107854332309e+04
-3.091490381862403592e+04
-3.091448979411693654e+04
-3.091481755063833771e+04
-3.091479032455793640e+04
-3.091485081927915962e+04
-3.091492991379922023e+04
-3.091478612148721732e+04
-3.091479025353622274e+04
-3.091497628635520596e+04
-3.091514295936132839e+04
-3.091474886501774381e+04
-3.091489125158952447e+04
-3.091466600226491209e+04
-3.091489443777074121e+04
-3.091475044735984920e+04
-3.091454382259644626e+04
-3.091497663112346709e+04
-3.091507798020365226e+04
-3.091482786810754624e+04
-3.091465816892315343e+04
-3.091489507506140581e+04
-3.091490705324151713e+04
-3.091464761607545734e+04
-3.091488151970934996e+04
-3.091508839318482933e+04
-3.091433402634596496e+04
-3.091504045434145155e+04
-3.091477831236359998e+04
-3.091484811120199811e+04
-3.091502427690021432e+04
-3.091486550771333714e+04
-3.091427922206983931e+04
-3.091427696298055162e+04
-3.091425718329600568e+04
-3.091446071575747919e+04
-3.091503369639367884e+04
-3.091492166684438780e+04
-3.091435290342883673e+04
-3.091469244547372364e+04
-3.091455476592753257e+04
-3.091476010059912369e+04
-3.091490913518468369e+04
-3.091463148924739653e+04
-3.091470432786975653e+04
-3.091445519375087315e+04
-3.091460985320207692e+04
-3.091479927873669658e+04
-3.091486734611459906e+04
-3.091513321305911450e+04
-3.091493553104568127e+04
-3.091456234974088147e+04
-3.091501091284419817e+04
-3.091495817119115600e+04
-3.091477873713333611e+04
-3.091493259167174256e+04
-3.091481022233990734e+04
-3.091479236214654156e+04
-3.091485100867040819e+04
-3.091467218904569017e+04
-3.091476914457545718e+04
-3.091441141389576660e+04
-3.091461510554385313e+04
-3.091489555479814589e+04
-3.091448946268225336e+04
-3.091508873468772435e+04
-3.091478894711756948e+04
-3.091492132534149277e+04
-3.091498583727966252e+04
-3.091460986980102462e+04
-3.091465040061661057e+04
-3.091480698745031259e+04
-3.091498300675126666e+04
-3.091413051075555268e+04
-3.091497266343123556e+04
-3.091438674378088035e+04
-3.091454595732969028e+04
-3.091407715303671648e+04
-3.091421004963754967e+04
-3.091476876171124968e+04
-3.091429790459129435e+04
-3.091465117450843536e+04
-3.091416739633383258e+04
-3.091462961111752156e+04
-3.091442054848601401e+04
-3.091483152613419588e+04
-3.091468633542906173e+04
-3.091443182216334026e+04
-3.091463790487593360e+04
-3.091476110660407357e+04
-3.091477832869042322e+04
-3.091506889758715624e+04
-3.091448107749357951e+04
-3.091475496635476520e+04
-3.091466114203921825e+04
-3.091510092919836097e+04
-3.091509370566376674e+04
-3.091390362575450854e+04
-3.091509472962822838e+04
-3.091434685515401361e+04
-3.091497406781088284e+04
-3.091440251686092233e+04
-3.091505559502886899e+04
-3.091505513733335465e+04
-3.091409515608985748e+04
-3.091417996119143208e+04
-3.091424708515057137e+04
-3.091418312696410794e+04
-3.091435559844452655e+04
-3.091462288364649794e+04
-3.091443632755256112e+04
-3.091441044680310006e+04
-3.091472948071463543e+04
-3.091393302711311844e+04
-3.091443975047283311e+04
-3.091363935366933947e+04
-3.091439920441887443e+04
-3.091388020437013984e+04
-3.091402368647233379e+04
-3.091501163476227885e+04
-3.091441170124800556e+04
-3.091465024387902304e+04
-3.091468645026110971e+04
-3.091476765067035012e+04
-3.091460732961812027e+04
-3.091488354260380584e+04
-3.091437931207918518e+04
-3.091439931027116836e+04
-3.091441118341532638e+04
-3.091442510503264202e+04
-3.091441759115255627e+04
-3.091442098958258794e+04
-3.091443158215890799e+04
-3.091437520887425126e+04
-3.091445247424492845e+04
-3.091412801846468574e+04
-3.091424040965329914e+04
-3.091368089484369557e+04
-3.091383023147564381e+04
-3.091491233333890705e+04
-3.091425978851412583e+04
-3.091394744751515100e+04
-3.091470951626477472e+04
-3.091501923653514314e+04
-3.091470935245223154e+04
-3.091456075052771484e+04
-3.091470835379435448e+04
-3.091450201856009517e+04
-3.091450699116881515e+04
-3.091499162486940259e+04
-3.091521831449268939e+04
-3.091484177394225480e+04
-3.091467102902429542e+04
-3.091515885734163021e+04
-3.091504289302588586e+04
-3.091487541918866918e+04
-3.091508410167710099e+04
-3.091491606946223692e+04
-3.091497751086758581e+04
-3.091475030096259434e+04
-3.091511208178500965e+04
-3.091493094184539223e+04
-3.091487909980077166e+04
-3.091465906553833338e+04
-3.091472416660301678e+04
-3.091480659206886776e+04
-3.091521214839256209e+04
-3.091475778844763408e+04
-3.091470617062483507e+04
-3.091497508959843617e+04
-3.091492759430065416e+04
-3.091516467812925839e+04
-3.091517678719613832e+04
-3.091487852128670056e+04
-3.091512612721413825e+04
-3.091499430029289579e+04
-3.091489493383431181e+04
-3.091501325220707804e+04
-3.091488361008804350e+04
-3.091484441263038389e+04
-3.091501512380622444e+04
-3.091475026640413489e+04
-3.091484350268162234e+04
-3.091520786395980031e+04
-3.091488464439283416e+04
-3.091509277666703929e+04
-3.091476545362302568e+04
-3.091435266614554348e+04
-3.091511879129652152e+04
-3.091482065709018570e+04
-3.091499604508698758e+04
-3.091511431883307523e+04
-3.091479009217270141e+04
-3.091482410096323292e+04
-3.091487115897403783e+04
-3.091487289533259536e+04
-3.091501212728836981e+04
-3.091517137022547467e+04
-3.091516599597669119e+04
-3.091483746501924179e+04
-3.091492404566377081e+04
-3.091496372966101990e+04
-3.091418884217156301e+04
-3.091514371311672221e+04
-3.091497792257586116e+04
-3.091504341983832637e+04
-3.091463919551198342e+04
-3.091458562989815982e+04
-3.091481125419566888e+04
-3.091476248213964936e+04
-3.091469730461097060e+04
-3.091487115706924305e+04
-3.091469357882796612e+04
-3.091425270402971728e+04
-3.091493598738063156e+04
-3.091473712139977943e+04
-3.091510632630470718e+04
-3.091479242119524861e+04
-3.091506879173486232e+04
-3.091506112465467231e+04
-3.091431162076264445e+04
-3.091483234628537684e+04
-3.091508639124314504e+04
-3.091456985192007051e+04
-3.091488542808075363e+04
-3.091459385590022066e+04
-3.091500295677908798e+04
-3.091491141060079826e+04
-3.091479219860611192e+04
-3.091493100279889768e+04
-3.091500572771455336e+04
-3.091497703357986757e+04
-3.091485207426829220e+04
-3.091489477029387854e+04
-3.091510773313337995e+04
-3.091501203993982199e+04
-3.091422665157641313e+04
-3.091510778156964079e+04
-3.091483451857034015e+04
-3.091520528731363447e+04
-3.091425175843403849e+04
-3.091434370244280217e+04
-3.091444327761272143e+04
-3.091498840195281809e+04
-3.091505960517086714e+04
-3.091501056862016776e+04
-3.091434646875232647e+04
-3.091303824353472373e+04
-3.091508224041828362e+04
-3.091424515477482782e+04
-3.091424974125398148e+04
-3.091508197946109067e+04
-3.091507614506776736e+04
-3.091448814265790861e+04
-3.091508118570495208e+04
-3.091505762363772010e+04
-3.091469761699768424e+04
-3.091458555071302180e+04
-3.091457564821745837e+04
-3.091411118876652108e+04
-3.091485969726603798e+04
-3.091465748618947327e+04
-3.091473209491250964e+04
-3.091445378937122587e+04
-3.091484158836060305e+04
-3.091468911616062178e+04
-3.091472065606207252e+04
-3.091468981168365644e+04
-3.091418851998874743e+04
-3.091411303778021465e+04
-3.091415044799402312e+04
-3.091430443967781684e+04
-3.091394608368046829e+04
-3.091383220158000404e+04
-3.091434980133079807e+04
-3.091428011405907819e+04
-3.091496502465089361e+04
-3.091403652779761978e+04
-3.091474080364456677e+04
-3.091444485560100657e+04
-3.091369977437558919e+04
-3.091410149171691592e+04
-3.091488825915338020e+04
-3.091493862552452629e+04
-3.091476693609934955e+04
-3.091413569670154175e+04
-3.091490206430596663e+04
-3.091444830981437553e+04
-3.091430543262129868e+04
-3.091433264700079599e+04
-3.091439498855880083e+04
-3.091440803886753201e+04
-3.091440471390824678e+04
-3.091349084752890121e+04
-3.091443199250661564e+04
-3.091431491578940404e+04
-3.091415463936384913e+04
-3.091378476451458846e+04
-3.091490826305975133e+04
-3.091404218504482196e+04
-3.091394611796681784e+04
-3.091419903936644187e+04
-3.091309265542266439e+04
-3.091471720756309514e+04
-3.091454813696173369e+04
-3.091465961901792980e+04
-3.091486461844523728e+04
-3.091487460475187254e+04
-3.091505752377193130e+04
-3.091425127815307860e+04
-3.091440153697890491e+04
-3.091462441455908993e+04
-3.091466145714707454e+04
-3.091497541042068042e+04
-3.091481285749054950e+04
-3.091423691190170575e+04
-3.091433983897017970e+04
-3.091430697060884995e+04
-3.091433788546476353e+04
-3.091481672749390418e+04
-3.091419773920640728e+04
-3.091435017303833956e+04
-3.091417512790501132e+04
-3.091440022321317156e+04
-3.091404323540432961e+04
-3.091406411959904290e+04
-3.091405308538192185e+04
-3.091422096575725300e+04
-3.091445083829638679e+04
-3.091333377061813735e+04
-3.091471131847488505e+04
-3.091489587344348183e+04
-3.091440744348239605e+04
-3.091504303398086631e+04
-3.091392456954215959e+04
-3.091504181980881185e+04
-3.091501082740044876e+04
-3.091364279754238305e+04
-3.091417120810482083e+04
-3.091449453134716532e+04
-3.091412704239225786e+04
-3.091490766740250911e+04
-3.091409668945147496e+04
-3.091444464498487650e+04
-3.091410995064844246e+04
-3.091448018849759319e+04
-3.091406301263985006e+04
-3.091416691795766383e+04
-3.091369564477560925e+04
-3.091438214015855920e+04
-3.091443330763291306e+04
-3.091496209561727301e+04
-3.091480593491388572e+04
-3.091443942175928532e+04
-3.091372331957176721e+04
-3.091414979573709934e+04
-3.091493049639499441e+04
-3.091490663010446588e+04
-3.091429526018878096e+04
-3.091326010232061162e+04
-3.091496803178118716e+04
-3.091495307477061942e+04
-3.091354016299630894e+04
-3.091456469019221549e+04
-3.091485283754767806e+04
-3.091441330399865183e+04
-3.091442793120721763e+04
-3.091401775575070496e+04
-3.091448737311990044e+04
-3.091438279812987457e+04
-3.091438783033153959e+04
-3.091407610430988643e+04
-3.091494906734977121e+04
-3.091428188769723783e+04
-3.091499803179029186e+04
-3.091450521236049826e+04
-3.091481975448850790e+04
-3.091443831561644038e+04
-3.091445462748192585e+04
-3.091420336298360053e+04
-3.091448806320066069e+04
-3.091400921110330819e+04
-3.091378931915641806e+04
-3.091442296023117524e+04
-3.091413398428900473e+04
-3.091402072315237456e+04
-3.091471930420040735e+04
-3.091500210832806624e+04
-3.091291044444287763e+04
-3.091257735884359863e+04
-3.091399241242612334e+04
-3.091413446756322446e+04
-3.091354191051153612e+04
-3.091299841994306917e+04
-3.091365880164708869e+04
-3.091446441786658033e+04
-3.091438392876297803e+04
-3.091505065316901891e+04
-3.091364835492379643e+04
-3.091333309223828110e+04
-3.091504816087815198e+04
-3.091444391490338239e+04
-3.091498090031785250e+04
-3.091500946737536651e+04
-3.091415611530943715e+04
-3.091414617907175125e+04
-3.091310938797617928e+04
-3.091444689400594871e+04
-3.091486102436534202e+04
-3.091391606326282272e+04
-3.091441806000474389e+04
-3.091472371652668880e+04
-3.091444681999098248e+04
-3.091376433420579997e+04
-3.091445456353516420e+04
-3.091303722528465369e+04
-3.091314691465472424e+04
-3.091413348686486643e+04
-3.091420215316537360e+04
-3.091492196535330004e+04
-3.091298284822728965e+04
-3.091313136797341576e+04
-3.091488238802468550e+04
-3.091378146703880338e+04
-3.091337200234370175e+04
-3.091505683450751530e+04
-3.091496459879269605e+04
-3.091506507411527491e+04
-3.091492353028012076e+04
-3.091485284843222689e+04
-3.091485159208252662e+04
-3.091484580149953399e+04
-3.091491231347459325e+04
-3.091487917953013311e+04
-3.091399927677042069e+04
-3.091483069047252502e+04
-3.091506457995649907e+04
-3.091500467028008279e+04
-3.091482903003373940e+04
-3.091474126242853890e+04
-3.091486693739957263e+04
-3.091495880031840352e+04
-3.091483518252816793e+04
-3.091480582878948189e+04
-3.091503037769301227e+04
-3.091502353729473907e+04
-3.091491875005589827e+04
-3.091488934135021191e+04
-3.091503344387200923e+04
-3.091480761548910232e+04
-3.091502746090451910e+04
-3.091490928375885414e+04
-3.091464619455263892e+04
-3.091493230758486607e+04
-3.091428364119896651e+04
-3.091416183895241920e+04
-3.091404219429669320e+04
-3.091308969727286603e+04
-3.091489208806753959e+04
-3.091405657877968770e+04
-3.091353161535566323e+04
-3.091311112841644353e+04
-3.091410626105658230e+04
-3.091481765812330923e+04
-3.091422024356706606e+04
-3.091408914264560735e+04
-3.091367350042159887e+04
-3.091337147879662734e+04
-3.091293233818002409e+04
-3.091250992875636439e+04
-3.091236510350014942e+04
-3.091321652491822169e+04
-3.091301803472661413e+04
-3.091329562488056035e+04
-3.091474933740740744e+04
-3.091320982030476080e+04
-3.091482853914032967e+04
-3.091496937411886756e+04
-3.091401605313426626e+04
-3.091420766401531364e+04
-3.091425908509979126e+04
-3.091432004840107766e+04
-3.091400148089270442e+04
-3.091396404319539579e+04
-3.091421805713217327e+04
-3.091494279322044531e+04
-3.091278786639971440e+04
-3.091313504287113392e+04
-3.091262793283761857e+04
-3.091320070693939488e+04
-3.091307482761084975e+04
-3.091322267224248571e+04
-3.091319922663998295e+04
-3.091507598452058664e+04
-3.091507867327766144e+04
-3.091503869158785164e+04
-3.091477540890868477e+04
-3.091508430576249884e+04
-3.091518663418047799e+04
-3.091504510939329703e+04
-3.091506378511190269e+04
-3.091236461696056358e+04
-3.091334479939298035e+04
-3.091351028407786725e+04
-3.091315391560017815e+04
-3.091501429549162640e+04
-3.091500477830928867e+04
-3.091474215550623194e+04
-3.091508378847404674e+04
-3.091286429638083064e+04
-3.091318284293643956e+04
-3.091295225609841509e+04
-3.091326597208873864e+04
-3.091330505444223309e+04
-3.091348356086389686e+04
-3.091361499077100234e+04
-3.091347076688641755e+04
-3.091308688334341059e+04
-3.091487821162112596e+04
-3.091323052953026490e+04
-3.091405027526206322e+04
-3.091418255416442844e+04
-3.091401705288059748e+04
-3.091322408015961264e+04
-3.091425531469011185e+04
-3.091415594006811079e+04
-3.091340715945472766e+04
-3.091355493769058739e+04
-3.091330133954378107e+04
-3.091483955376525773e+04
-3.091247208071135537e+04
-3.091199872395345665e+04
-3.091315892766540856e+04
-3.091339706049295273e+04
-3.091245265423059755e+04
-3.091139451852365528e+04
-3.091249599054010105e+04
-3.091319864894225248e+04
-3.091277218556627122e+04
-3.091244002841949259e+04
-3.091480153646541294e+04
-3.091264112355710313e+04
-3.091146865104743483e+04
-3.091166110684202067e+04
-3.091079234115847066e+04
-3.091506454077210219e+04
-3.091471352504619790e+04
-3.091488803302676388e+04
-3.091472377802442134e+04
-3.091489572976735872e+04
-3.091497465530471163e+04
-3.091514843021053093e+04
-3.091498731295313701e+04
-3.091489775456660936e+04
-3.091478175922989249e+04
-3.091501403426231991e+04
-3.091504841149501954e+04
-3.091472729618454832e+04
-3.091483153756297907e+04
-3.091467722206369217e+04
