-1.319671771340715505e-01 -1.061430662695281302e-01 4.134637615294717294e-02 3.426573229648650631e-01 -8.041712013179702634e-02 -1.710061422752210195e-02 -3.923642588025856581e-02 1.525947795477273772e-01 -2.053232760703568860e-01 -1.648761176113682295e-02 1.604645670205067098e-01 2.365762717087133704e-01 8.131494942993366948e-02 -2.123993639316391208e-02 1.325695352324892107e-01 -1.452126789628934989e-01 -1.241053600817510344e-01 -2.651121253016208712e-01 -9.106837865643831187e-02 1.884618773007346385e-02 7.704378108328255315e-02
-8.479344660643721443e-02 -3.955453821628736044e-01 -6.043414475602441882e-02 1.202532815850319708e-01 2.853755052113418622e-02 -8.351257432766941158e-02 3.981404996422013287e-01 3.903803954393490067e-02 1.905367577234043930e-01 -1.043500816207635906e-01 3.706703683977407016e-01 1.380264964551444207e-01 -1.121833594256347599e-01 7.970446169864260633e-02 -2.748428773963684790e-01 -1.372868928586324089e-01 -2.188871319189247544e-01 1.429724251712198579e-01 -7.978005213783281868e-02 9.648214534241339457e-02 -5.274608286970639687e-02
-1.513495941837881276e-01 -5.088305108062560755e-01 2.253105708997974466e-01 4.112243304908777541e-02 1.373685511017848360e-01 9.853830813252174858e-02 4.400080384490210883e-01 -2.288487690966410359e-01 3.373823444390086079e-01 3.347903637057969561e-01 3.461396767964293186e-01 -1.807187423801494552e-01 -2.610138893678926597e-01 5.261567650658643958e-01 -3.106149471686794894e-01 -3.282552874164330614e-01 -2.887047241259616537e-01 -3.332204994078121763e-01 -7.530206423579191566e-02 1.671901106478028767e-02 1.633229654853132484e-01
9.794844559650082993e-02 2.530780759604736585e-01 4.677875248514192785e-01 5.500628842356083265e-02 -9.045635320933508028e-02 1.110055883921569758e-01 -3.715952971254374293e-01 -7.018937375489073260e-02 2.567877667523507657e-01 -1.806328161053965264e-01 8.433630442657267731e-03 -6.878537647775762043e-01 1.318524545015318516e-01 -4.998119029239881939e-01 -2.416099264719034634e-01 1.239582929687687435e-01 5.142242743079829259e-02 -1.646447183077247578e-01 1.434627345846066493e-01 3.475235474763522237e-01 2.585275295612773361e-01
-3.838345205158151252e-01 -1.827140214423658704e-01 1.908731094667670269e-01 1.747816533134678441e-01 -4.353474507853717645e-02 -8.577134006363450192e-02 -5.420461839160491124e-02 -3.264354604484459021e-01 -3.710129422112680153e-01 3.420998563313542018e-01 -2.524590056901261925e-01 3.832233692438590245e-01 2.070499776741444309e-01 1.772922329138645059e-01 -2.740040292096271660e-02 6.595049846661475701e-02 4.745941096570580608e-01 2.793703333273215850e-01 -3.518428983002286903e-01 1.532568900885525331e-01 -3.692821782641498296e-01
1.226109319567540573e-01 2.384543084570837912e-01 6.730460091167559389e-01 8.880776172604407104e-02 4.334878231371579460e-01 -2.287031418015480766e-01 -3.984151449045924553e-01 2.505926931731404239e-01 2.318325859840223435e-01 -3.396808080110654271e-01 -5.146236180840041419e-01 -1.973470963399689970e-02 1.110238946481785505e-01 -9.682631324003243556e-02 -8.962956863962371346e-01 3.491307441953248047e-01 -3.827947148893763307e-01 1.423783460256659028e-01 6.652256896728889202e-02 7.170982144603074704e-02 9.747654528327058532e-02
-8.636284810581467547e-03 1.974075172692536795e-01 5.209814939288445190e-01 1.081534119975151031e-01 -4.430012655747505024e-01 2.113012971027496689e-01 3.813931035961741212e-01 2.344681212083864486e-01 1.184451274263619291e-01 1.478741309092656830e-01 6.154954082165339790e-02 -5.504276723822854045e-01 -2.764312022165771876e-01 -5.060157696767370039e-01 -3.560529258086504445e-01 -2.745548109743660703e-01 6.029381393388151544e-02 -5.363799863008326951e-02 -7.779834850143016456e-02 3.952980934403799163e-01 1.093906783630629598e-01
-1.245997832605359040e-01 -1.487771024141499865e-01 4.959399240871558145e-01 -1.254107092646375606e-02 3.016436990105572091e-01 2.718696534548872834e-01 -1.767103922203698552e-01 -4.334634490771741566e-01 -1.479321864234464656e-01 4.980842243009185322e-01 -1.383112718648283057e-01 1.106179688475204537e-01 3.685132640891763400e-01 3.369657742703828784e-01 -3.820077001466511413e-01 -1.044915951504584439e-01 6.628242791217443808e-02 -4.586305401855725328e-01 -4.482546468322670119e-01 1.565997358510535370e-02 1.101429317881741365e-01
5.878095613990101942e-01 -2.924023307319818105e-02 1.069490557551520671e-01 -1.952477904352479809e-01 1.528520955733789037e-02 -4.373189728524140736e-03 3.432469798126160931e-01 -3.342222527043184344e-01 -2.882065985583184831e-01 -3.765335639534589385e-01 -3.156346151295159608e-01 4.359761884044048297e-01 -4.005068403433268975e-01 3.051539750247611246e-03 -3.873624857212308870e-01 -3.567102540972003077e-01 3.763740012780799060e-01 3.994298565621027253e-01 3.979418561955402889e-01 2.843864017434347691e-01 -2.624128267135860670e-01
3.729910977250148196e-01 4.248414081792835639e-01 -1.181941260305964692e+00 -9.511878692520681078e-01 5.218686788590135572e-01 -3.993033582761110201e-01 2.645981103151274771e-01 1.350110395696449528e+00 6.511864882325698600e-01 -2.193121353066165846e-01 -1.566973040818831375e+00 -7.208077509859820431e-01 -5.382507725376889374e-01 -4.366456008788116572e-01 1.304951330350470062e+00 3.967714899397791206e-01 -6.672007084405195965e-01 6.172860274501945632e-01 6.743900791164522124e-01 3.739988674034158689e-01 -2.713714764651766753e-01
-2.653066549828838050e-01 -4.566149494067029968e-01 1.371582348458066647e-01 -4.200238803656965447e-01 -1.746190567361077112e-02 2.422991364422886762e-01 1.252829768490263673e-01 3.864263984048919021e-01 -3.599462962255529641e-01 7.811186884683332665e-02 -3.945820925728395906e-03 1.652519100804852037e-01 2.495019796999000394e-01 -1.209239281890582135e-01 -1.145368446098912474e-01 1.824392733358398411e-01 1.624596403944532086e-01 -2.177128061639678758e-01 4.999443661698071972e-02 5.006056539575527708e-02 1.474866656308315704e-01
-4.722859787363157570e-03 3.974360687398431624e-01 -2.175398223289775335e-01 -2.442052496395011041e-01 -4.950882718056128229e-01 1.489770828345653997e-01 -6.952489779896164901e-02 3.693746351414722850e-01 2.346716497514577393e-01 -3.018269672590428304e-02 1.289964214518292407e-01 -4.044092610441052393e-01 1.093776171579239898e-01 -3.488433976822670757e-01 -1.223701224147624167e-01 8.162121926382266690e-02 5.605226469809677231e-02 3.597825169406408952e-01 1.576369189520510361e-01 -1.079276176992265412e-01 8.879562611811966455e-04
-6.735390953217863796e-02 3.728727755477517780e-01 4.380918465265833117e-02 1.039068233991176649e-01 3.086270214621121902e-02 -1.114428302319081798e-01 1.809181571578226677e-01 2.084487607536354148e-01 1.271397762835290157e-01 6.827256476764321028e-03 -3.371464714154946973e-01 3.603164836893150286e-02 2.765406797982342818e-02 -2.585451159083542172e-01 -2.447166935226206541e-01 -1.568204907867294107e-01 -9.456430791381634227e-02 2.257888989714622319e-01 -9.513195611668749663e-02 7.807165679006683456e-02 -7.660998452205226850e-02
-1.199571933205032803e-01 3.533197400781487030e-01 -1.303703676727291849e-03 -1.752532965163607070e-01 4.447581519321466836e-01 1.687764814294475529e-02 -2.401127729773302466e-01 -4.291498575248550718e-01 -1.945697904755726293e-02 1.909064823885591455e-01 -3.625291752528213285e-02 2.594757524855407886e-03 -9.470273611946261605e-02 -3.436773310953254446e-01 1.626634260478618992e-03 2.315056959010753368e-01 -2.233284558868550151e-01 2.251309536181026610e-03 2.076138206440223399e-01 2.343307214440897290e-01 -2.589718162242727901e-03
-2.321889409116332514e-01 4.881939095307919474e-01 -1.074732008889382612e-01 2.978640227848448063e-01 -4.099255119105607026e-01 9.434098187476665232e-02 3.072050984522567973e-01 2.507999755271374531e-01 1.509905653086684174e-01 -3.559404657470796596e-01 5.362668577523847790e-02 -2.762402720800375966e-01 2.357801038379774561e-01 1.689058079291504699e-01 -1.277290217547402407e-01 -2.534734602372991641e-01 -3.559864370754035057e-01 3.129486862790250568e-01 7.535903988655568483e-04 -1.956144297763541817e-01 -4.683768731667654894e-02
-2.173770200633474634e-02 -4.067928795599028979e-01 -7.995576134239941457e-02 4.102342500036885720e-01 -2.574235491946280652e-01 1.555565877902287952e-01 3.037172424594725695e-01 4.636768961994292698e-02 -3.329866318449298257e-01 -5.205601929300108788e-01 2.541542884106857136e-01 1.948936466565385217e-01 2.303259194069659788e-01 -1.155592695775230390e-02 1.837860687051123126e-02 -6.551377084753831279e-03 3.871179737903809870e-01 6.610198787740001469e-02 -3.954281398490275823e-01 -1.186764753079379113e-02 -2.198838458528184006e-02
-1.635831611467434554e-01 -2.808116424566154956e-01 3.837510625003010545e-01 -2.041269930925876386e-01 -4.246620480079261739e-01 -2.979898525839593804e-01 4.630650764405959685e-01 1.257907183432875955e-02 3.526864258951102893e-01 -2.537876490695795129e-01 2.334052784957182658e-01 -5.754484162866461971e-02 8.090542408455220214e-03 3.671388036476015970e-01 -8.872708050217371911e-02 -2.466455352736576512e-01 3.828416632369822103e-01 6.807520687266906123e-02 3.969877197335170971e-01 -2.904911267500892014e-01 -3.602509205532827274e-01
5.760567393448910722e-02 -5.224264540249291544e-01 3.053561665940780490e-01 -6.872358772147806050e-02 3.747023212864919635e-03 -9.950591717622379040e-01 7.208560363073422961e-01 7.485793183899888681e-02 3.452128968743035098e-01 -5.219102278895343394e-01 4.628114628038026424e-01 3.842309846560575948e-01 1.563802664670645715e-01 -5.921919556776125519e-03 3.960044269592347815e-02 -2.869174473266869474e-01 8.891523384706960520e-02 -9.631276105214636729e-02 -5.729071377119660663e-02 -1.019833295430982306e-01 1.697149341608904932e-02
-2.883934149294599680e-01 -7.402914695086270092e-01 3.860617645244172613e-01 2.213601219879962057e-01 -1.327749149699896936e-01 -3.903041365132816076e-01 5.735753674788209855e-01 3.209284655541362330e-01 2.542179489302214268e-01 4.100858459169519007e-03 7.142866614989717977e-01 -3.275936396742151757e-01 -2.914302993904768213e-01 -7.597852153344299142e-02 1.997905187202415889e-01 -1.275766581688078660e-01 -1.771169865079051664e-01 -1.954939992943246496e-01 -9.163597543724200101e-02 9.094676546685680207e-02 7.332154330694122535e-02
-2.324301104080972180e-01 -5.506861196934214053e-01 1.582786149320881131e-01 1.724101704055946149e-01 2.947548903190237019e-02 4.962167804984483066e-01 2.387646920563709085e-01 -2.977794849059137161e-01 -6.173853748845589129e-01 6.192019108402276040e-02 5.754003366535557218e-01 -2.341899278233395276e-01 -9.573169168966388920e-02 3.295555972367069653e-01 3.533282247192823244e-02 -6.745767926434587114e-02 -6.905757404973679459e-02 3.118340101223407435e-01 -7.747552076181378478e-02 -1.690819285102568986e-02 -1.500869253169069550e-01
1.098778510303336925e-01 -4.773345973211414184e-01 1.355618881830716049e-01 1.892895668988335833e-01 1.470453614477497395e-01 8.092722704116216415e-01 2.038493139282154532e-01 4.522797091639763761e-02 -7.860580351597716842e-01 -1.519862508012125302e-01 2.868317267402039628e-01 -1.388650875315483590e-01 -1.326538674231504122e-01 2.605705797241792410e-01 5.279560232068609971e-02 -2.270787186899709542e-01 -1.045501134632464968e-01 1.877106008949054952e-02 8.702105056951164180e-03 -1.577909280441426310e-01 -9.147769831354986281e-02
-3.742189538522145212e-03 -4.270203668665255026e-01 1.414337226461257757e-01 8.628838895210896864e-02 -4.098318209036188042e-01 -2.150777851602785062e-01 4.574245898591177140e-01 -4.359871413047772606e-03 3.849203488926452588e-01 1.022930960775755987e-01 4.545422801329347395e-01 -1.146216910212271844e-01 -8.479498926846149986e-04 4.239773117574114347e-01 -1.087459999031122615e-01 -5.499463104086393939e-01 -6.001166104963891884e-02 -2.418194713968694898e-01 -9.146962504895608803e-02 2.270407692041734316e-02 1.539108759427164630e-01
6.931154764100237731e-02 4.443908955262307892e-01 2.678201142190591577e-01 9.748929795600470849e-02 5.280229747387151784e-01 -5.388107074304386568e-02 -5.033158026018250686e-01 2.794537399207681905e-02 -2.230019771804478135e-01 3.780735520302399427e-02 -5.413657156971348750e-01 6.363023193794797860e-02 8.412485688511002480e-02 -4.544227752481197480e-01 2.541848845408341551e-01 6.488457042989799473e-02 -3.616578797415024860e-01 -1.786090492177982436e-01 1.496981230647184413e-01 3.570872292738692666e-01 -1.301431849786187922e-01
-3.124769402319971801e-01 -3.280365379413888172e-01 7.129068017403120128e-02 -4.739587385913206219e-02 1.712361531830426387e-01 -9.753017849964838726e-02 1.351385303015389949e-01 4.730156578738048401e-02 1.286811013340644072e-01 4.907137965254018130e-01 -2.449695872504692173e-01 1.968946335682447979e-01 -1.436241484544148461e-01 1.460533269219964625e-01 -4.866824092793927692e-01 -4.318425226661854084e-03 1.510264064896994218e-01 2.128714185110717749e-01 -1.180369390547348352e-01 5.738872423180648580e-02 -2.552524580837101445e-02
8.728407444465305365e-02 -3.067788609349455520e-01 -3.418559100432465025e-01 -5.449720995554520331e-02 -3.839922834188325140e-01 -1.979769138224190261e-01 5.270135081320874715e-01 -1.273227874216772415e-01 1.843575221409767262e-01 8.610419510640876170e-03 3.736132533194108651e-01 5.776631647328514529e-02 -1.817055318550201554e-02 3.595719435743252590e-01 -1.666013279751989498e-02 -3.310232858866162253e-01 3.349316715472218653e-01 -6.792094067024008475e-02 -2.192169016376503965e-01 -2.500229366655027374e-01 3.822900587191637167e-01
5.628577230650676916e-02 -1.400817850701056855e-01 -6.561252178591986395e-01 -1.902829383983412337e-01 -4.326930950843112522e-01 -5.151426724331100576e-02 5.291078775183306604e-01 3.212598807790211647e-02 6.578728482444490266e-02 6.634367159453874452e-02 2.337459496927489500e-01 -5.550539101048605067e-02 -5.079934623918765102e-03 5.780131947461628616e-01 5.309269331553058135e-01 -4.826305560505282921e-01 -1.085583093568236734e-01 2.216829497276125993e-01 2.625621049754698483e-02 -1.625519944276407058e-01 -5.525234301643505014e-02
7.783547523414807712e-02 4.315714769485176627e-01 1.415022168400042329e-02 1.712891693346107191e-01 2.735530576778597567e-01 -1.967935377835863531e-01 5.250230627442138420e-01 -2.795628575479529587e-01 -6.636773712211767318e-02 -3.756993951748579391e-02 -2.908200737157352889e-02 4.080387334107193897e-01 3.820531058322327450e-02 -3.798306954979734362e-01 -8.542526954951883134e-02 -3.881582422154270517e-01 -2.138479749945147168e-01 -7.970651858134165935e-02 -3.866248875853504630e-01 1.971989493635697144e-01 6.104107941844749002e-03
-2.652268993562280075e-01 4.051115322196294777e-01 2.438824733219522312e-01 -2.985222766706092656e-01 -6.253113666770898638e-02 -4.977251954257989053e-01 -1.193293812986848113e-01 3.357025397607594774e-01 2.161619166088818711e-01 7.763379788550592298e-02 -3.189769466713421875e-01 1.939670210006151363e-01 -3.750314225183404727e-03 -4.215302384103479794e-01 1.631866455844334929e-01 1.655067578468978617e-01 -3.082292717701827778e-01 -3.086108235108571130e-01 4.436883158183017040e-01 3.704534701171255939e-01 -1.086198615715928441e-02
6.125237783591446217e-01 -3.162744084930564359e-01 -2.596185001448550467e-01 -5.376474374199892159e-01 5.571102785832387355e-02 -2.380254998363986740e-01 3.183836902788678702e-01 3.658087204502589729e-01 2.441080105099034114e-01 1.496920552607562405e-01 -3.848579225027289885e-01 -1.509741616691434758e-02 -1.970622180861501538e-01 -5.420277233938249895e-01 6.210834442891863955e-02 -3.391741978022886905e-01 3.795651519415256803e-01 4.908944936705136319e-01 -6.715670590340692969e-03 4.420751027174343872e-01 -2.843694324611675261e-01
-3.990023849151720370e-01 -4.216619817472224141e-01 3.508276724220435461e-01 4.686964098940633039e-01 -1.007361387185274071e-01 5.953797124846050837e-01 2.971453479697956923e-01 -4.233208062219411816e-01 -7.677117213476356561e-01 -9.889728558557399352e-02 7.473709512263626564e-01 -2.622767639230437209e-01 -4.282897720242460210e-02 3.618700471919097938e-01 -1.485810300708627352e-01 -1.821161370638186283e-01 -1.860707511630854726e-03 3.236710615229861365e-01 -4.299697309686976304e-02 -1.616613127968832553e-01 -9.130893108809257086e-02
-2.260347992981340259e-01 -5.911011393602372266e-01 2.580905962539309928e-01 5.730783731966622163e-01 -1.671937101925262143e-03 6.265723900378118438e-01 7.368653714188819204e-02 -8.263947904398886990e-02 -9.479079641001580958e-01 -1.545058292634175490e-01 6.995493540705941538e-01 1.225167267291374096e-01 -3.861149349421877375e-02 3.614114651941559009e-01 -1.053041666607193450e-02 -1.795170086632277284e-01 1.149437474298314063e-03 -1.086877387006615972e-02 -4.809577961955233821e-02 -3.866976498108294913e-01 -3.787255838458397639e-02
-2.686897128021513148e-01 -6.481951637233369645e-01 -4.108268379092857442e-02 3.271594831585125651e-01 -4.042534521796520286e-01 -4.152913018075803930e-01 1.961880429390526204e-01 -3.658022412697569670e-01 4.190473238822535751e-01 2.881474631807207087e-01 7.874361465681372074e-01 -6.654833142309451999e-02 -2.411787524361144741e-02 6.969114534311261488e-01 -9.509904599350264831e-02 -3.072125546520408923e-01 -1.946638928590543188e-02 3.097932225304077525e-01 -2.114747951584147745e-01 -4.663030211854452683e-02 -1.108191833975553098e-01
-1.903944728626973948e-01 4.304725359444811494e-01 1.878262491246597554e-01 1.308840227047502192e-01 2.579866208334938293e-01 6.844445331259632059e-01 1.870015420064744527e-01 2.917588864016505412e-01 -8.030746257290375389e-01 1.758492268563438266e-01 -6.454747820876368669e-01 -1.095373340995054595e-01 7.822376326566181023e-03 -4.535361045386254730e-01 1.137798089325047640e-01 -1.856297555124085119e-01 -2.743654749219182620e-01 -3.171152621404293298e-02 -1.255328880969613092e-01 3.931583183685550820e-01 -4.172710514054189107e-02
-2.609772768558494844e-03 5.810894685108665136e-01 -1.000031171466523733e-01 -3.427551277372050120e-01 6.944426799715877618e-02 -4.679789692086336328e-01 -2.399994387406124141e-01 -5.464659620377068094e-01 5.111168901924560970e-01 4.146208608918239835e-01 -1.935904572004860102e-01 1.615186679817039450e-01 -6.426328901064902455e-02 -4.794233617020297877e-03 -2.360893561517800610e-01 1.519452674134338932e-01 1.694474879879461215e-01 1.923084022141662297e-01 8.306155137383454401e-02 -7.513062306282584923e-02 -6.087251788126009366e-02
-1.173895352252078972e-01 4.126582348424551183e-01 2.706345468161734380e-01 1.680969902298153629e-01 -1.154477865352343674e-01 6.865341716819987061e-01 1.366914767393240526e-01 4.998614223749678898e-01 -5.307581145077808760e-01 1.911420468796682093e-01 -3.450559053022982936e-01 -3.418102986693950518e-01 5.382347802747037462e-04 -3.342661671499432829e-01 -4.906631972110050977e-02 -1.305855690251176426e-01 -2.952544042824887249e-01 3.585225220212684416e-01 -2.484936443787568172e-01 1.775046060525417024e-01 -3.940564561990965720e-01
-3.556557931815307327e-01 -3.025132975936493662e-01 -6.664681496672518746e-01 2.051944637913286629e-01 -6.335417771090807726e-01 -1.804399319302928406e-01 4.058025933844437994e-01 -6.304170637568143332e-02 4.067552386065101944e-01 2.382418324742715809e-01 5.505971080946198137e-01 5.012628279799001552e-02 -2.550772630998182633e-01 7.555306563155735899e-01 -3.800903255166614148e-02 -1.189000070352574934e-01 -2.533484017691967072e-01 4.624900748820756635e-01 -1.196057749113700747e-01 -5.368258156258524927e-02 -3.445443071529763479e-02
-2.448540418648499362e-01 5.119574867294915954e-01 -3.173166823787340607e-01 6.143980612965892207e-02 7.254916328461982200e-01 2.284135327175214059e-01 7.529928744414819686e-02 -3.270951541520996653e-01 3.741574016374453748e-01 4.135824436612070554e-01 -4.626357535992360326e-01 -4.404068165822999648e-01 -1.653770199706550981e-01 -5.934655260227987839e-01 -1.708988244203979434e-01 -4.048587927579833101e-02 -2.592732523838189862e-01 2.330047520121451832e-01 -9.960459612371085070e-02 4.050205151601963816e-01 9.304663701432004663e-02
-1.655896502196697040e-01 -6.325038226770710592e-01 9.132723734411414551e-02 1.302892750723190218e-01 -4.659425010703686643e-01 -3.424172847538855535e-01 5.682480412882735532e-01 2.205083668623183391e-01 -1.310743357764800922e-02 3.005861527708391170e-02 2.664188114582617950e-01 3.940879779264595539e-01 7.966363257706640666e-02 4.980659694669645199e-01 1.557332740140774524e-02 -1.218538962793675601e-01 1.899827363684144510e-01 -3.402094782867894907e-01 -5.208159662936381329e-01 -7.652961183058677730e-02 1.947456025242741973e-01
4.788052684509643692e-02 1.520097506860492165e-01 6.150412999386506430e-01 1.791188475947585457e-01 4.341130640556025710e-01 1.550291002220566261e-01 -4.760388126428054534e-01 2.469865150030931822e-01 -2.174565185796658584e-01 -1.092141464054167538e-01 -3.931637691077076169e-01 -7.233506236447539983e-02 -7.353895580823113787e-02 -6.908965627763528072e-01 1.490246996690484937e-01 1.892519259454409075e-01 -2.263917712905547108e-01 -5.297125496097848663e-01 2.425406144711574896e-01 4.773427734298701375e-01 -9.959096927582963832e-02
-8.819619907754812360e-02 2.917748272425682021e-01 -5.390106364287866603e-01 -5.175921111952774822e-01 -1.017092499234494019e-01 -1.653656556937428343e-02 -4.224878201508922015e-02 4.102892201938207473e-01 1.346788684403681102e-01 4.915733678053361283e-02 -1.850643184584388201e-01 -1.155352040499441069e-01 -1.177795201849483608e-01 -7.748993950953415588e-01 1.336258987646553875e-01 4.629698427716297804e-01 -1.610221364981525294e-01 4.025141007472653465e-01 2.536894329206997312e-01 5.206311039610608260e-01 2.635380958161705461e-04
-2.505747982936586404e-01 4.854613408650999551e-01 -2.884675655507608627e-01 1.856587575584651428e-01 6.210086766030757932e-01 4.921980430810384832e-01 6.147174437576846673e-01 6.446085259389307265e-02 -5.656983809165949673e-01 1.693323539788666177e-01 -8.613012725503708111e-01 1.657111605651162833e-01 -2.992252677550781281e-01 -6.444422269727122510e-01 4.931839069586946810e-03 -2.293790848785243752e-01 3.749638539216765820e-01 2.722085763016237614e-01 -1.905294043677552562e-01 -4.015122446066240330e-02 -8.088362112794224290e-02
-2.708232658038114971e-01 3.568948078973728233e-01 5.626347569804903692e-01 4.819709137689419109e-01 3.180132971268359032e-01 4.041897916601163154e-01 -4.610461432273404297e-02 3.750451007882891763e-01 -8.047716053778237733e-01 1.904189497668161146e-01 -8.931382171869884923e-01 -1.402596025794388412e-01 -1.223831321978339215e-01 -5.618772585044966572e-01 1.372631358634583409e-01 -1.808204552296176493e-01 -6.097068260807240320e-02 -1.726416725533730656e-01 -5.225844740382839387e-02 4.660329524870595597e-01 1.358519600657055390e-02
-1.569671979452393618e-01 2.743819299835106862e-01 4.208323381105593119e-01 5.477332588906608235e-01 2.663801934855870510e-02 6.823033696583165053e-01 1.421191273835177016e-01 4.187558121817303025e-01 -7.625827300713444723e-01 3.930291461350545260e-03 -6.441624909256410403e-01 -2.066286252532433809e-01 -9.345785928792822717e-02 -4.062389610490479419e-01 -9.126547944107507582e-02 -3.530345532919250684e-01 -1.429392065156301628e-01 1.636459474911320655e-01 -9.032306721043645292e-02 4.735649483985869268e-01 -2.063048204943449815e-01
-2.456699558094967845e-02 4.276828887838904358e-01 -9.247307527368911484e-02 7.710024251337156687e-02 2.932382478608769882e-01 7.818680622576658079e-01 1.418461276272859062e-01 4.229000708658498531e-01 -6.531147643408645731e-01 2.354471973731357137e-01 -4.789874054139655057e-01 7.368278333096241195e-02 9.458338550085006180e-02 -5.626140853093648531e-01 -3.555752662238628736e-01 -2.284399636602042205e-01 -4.687158474355693771e-01 3.946785089493576870e-01 -2.959699423514218775e-01 3.664961306482825143e-01 -1.490663001216368522e-01
3.028635847172980733e-01 -1.367052064313402093e+00 -1.706069527654023033e-01 9.354442319631787184e-01 2.587368173759059878e-02 5.807032373620518717e-02 2.219959558523409981e-01 1.338387809818006202e+00 6.401132088001502962e-02 -8.138299110961835225e-01 1.083896449755013203e+00 6.302566269062881421e-02 -9.814968585756941311e-01 -1.218499933444461059e+00 -2.541543398327531511e-01 2.941542291488327687e-01 -4.584467577164121066e-02 1.476047769776179575e+00 4.086876799022705342e-02 1.832387322188943068e-01 -1.236393784484873137e+00
-2.067475644953161665e-03 4.927468708072133552e-01 1.727531555956617337e-01 2.029544156879249661e-01 7.274855749346602618e-01 1.419862527611588932e-01 3.686708213039238125e-01 -3.019611788551560538e-01 2.920891703410509743e-01 1.058299573006647731e-01 -1.953361335471723303e-01 -6.610054291730392828e-01 7.631024529073276996e-02 -7.729428882720021932e-01 -1.801503742683336351e-01 -4.833657373492372678e-01 -3.028953635549984647e-01 4.026889871987522906e-01 -2.683322265890558667e-01 3.529030156433206056e-01 -1.683617624552509739e-01
-1.635886118858959626e-01 -2.262576625385764317e-01 3.523934743766976574e-01 3.768342802040604567e-01 -1.684805988531887511e-01 7.767046181961654305e-01 2.417377103095821531e-02 -5.762299288681513865e-01 -6.346912660054464528e-01 3.705025267694980196e-01 6.159527046626009916e-01 -3.797794791187670271e-01 -4.249164843977990685e-02 7.238056575198519305e-01 -3.433235472710883390e-02 -5.125706948841467492e-01 1.713949445274095262e-01 2.032503496862512332e-02 -5.285951995055917368e-02 -5.401851164499459346e-01 -1.006200791122333349e-01
-2.258868065879371945e-01 6.205357478484960776e-01 2.148362557093422189e-03 -1.250881900574260519e-01 -3.512973101643048213e-01 2.932135138464208590e-01 3.189540638513152504e-01 -2.489255897455579236e-01 3.286526257318226896e-01 1.260201636083669585e-01 -3.179318959940208300e-01 -3.710176216194083776e-01 -1.922291093861177580e-01 1.286631550325151863e-01 -3.867227437797579048e-01 7.102199987146740057e-02 4.015861895396550252e-01 1.355124201541593743e-01 2.720787870033135325e-02 -2.326303479388500406e-01 -1.786608312397468864e-03
1.020536749314058245e-01 -5.460395188321256477e-01 3.478034377896258716e-02 1.106973130976364114e-02 -4.537627215899936450e-01 1.203645589390507364e-01 3.307883384603169108e-01 5.499584974386313718e-02 3.294406174938299247e-03 -1.137989893636734418e-01 4.555139000978998820e-01 -1.524146994674252797e-01 8.526976921747042582e-02 -6.440459685207396839e-03 1.186043301472686218e-01 -2.585357056700060552e-01 4.302937928379333976e-01 -2.541683266351067449e-01 -1.568467674632098019e-01 6.543910600556269996e-02 1.295393870623117727e-01
1.220866839788329050e-01 4.691564831317740492e-01 3.648025448559497064e-02 -1.109148284430612752e-01 4.757445241506385036e-01 -1.369467358822765157e-02 4.134756400270587773e-01 -9.866485784058098840e-02 -3.465703366115435724e-02 -1.343375801785277601e-01 -4.164929326803671339e-01 1.038670227188909917e-01 1.410337618052949146e-02 5.040051668384126077e-02 -8.352373291631177976e-02 1.114412875698839039e-01 -4.279869474688779429e-01 -8.680595206125818475e-02 -4.158545277126485251e-01 -5.215678597642769976e-02 7.833406360039853189e-02
1.079371822037771406e-01 -8.209990214775303441e-01 2.341858654800088868e-01 -4.691125172640818186e-01 -8.239676688550061356e-02 -2.727154950428054003e-01 -2.998190897902947016e-01 4.013635319874824803e-01 4.177392493297908405e-01 1.610530411607057899e-01 5.736746634911177312e-01 -5.707628374982032932e-02 3.066702061063680262e-01 -7.373183998333483757e-02 -4.561748793532405810e-01 8.924711187056181411e-03 -2.038555874204475704e-02 1.315038643061098578e-01 1.843464149744018510e-01 2.247499160981030961e-02 2.537627607889209654e-03
8.964779262033734097e-02 5.185936073814463310e-01 -3.470282501224202787e-01 -1.010576294843893996e-01 2.584913798478414848e-01 4.370626852681120944e-01 -4.392389700078451198e-01 -2.522128996751844821e-02 -3.852303725374600085e-01 -3.061577337818989844e-02 -4.522154830016984484e-01 -7.971623735209469597e-02 1.924927503260688566e-01 -4.404190550343594079e-01 2.762936996081454821e-01 2.292953183306054576e-01 2.529327057757180808e-01 1.559844708136992886e-01 5.947661443754774513e-02 -1.121618650014296475e-01 -5.736599567798195132e-02
-5.831015625891476650e-02 4.630255328707065798e-01 -1.837628773526804871e-01 -1.772247157392680683e-01 -1.651172871078321683e-02 5.651886853837695401e-01 5.151321309092774525e-01 1.309825988081023407e-01 -4.946905735357509659e-02 1.148843035198287704e-01 -2.215387622504089715e-01 -3.209670835268109701e-01 -1.165265186667527146e-02 -3.878271355229469530e-01 4.452492840986130296e-02 -2.123912392449778808e-01 -1.453357319703643402e-01 9.857826307895087292e-02 -1.704376713192702342e-01 1.772052781977620228e-01 -1.540929100615826552e-01
6.263984291835393570e-02 3.128729929956998723e-01 -5.973113824493532231e-01 1.450980591744887582e-01 -7.029798744581422509e-01 -1.135412105394146276e-01 3.269675245806234476e-01 -3.126429820878782739e-01 3.555377795366725935e-01 7.747454374253173737e-02 5.166449681344309486e-01 3.587562353179483687e-01 -4.117989720949257193e-01 4.807341102020013662e-02 -6.640167568665204800e-02 -1.435439300291517506e-01 2.584042194434690853e-01 7.230400343571968813e-02 -5.683701686985299234e-02 -1.203727350477794694e-01 -9.343698192853284665e-03
-3.723018877546295791e-01 1.438695911246860915e+00 -1.838416045379867581e-01 5.718396155911575213e-02 1.047180065135566995e-01 1.427392158108012454e+00 2.192253862787839902e-01 -3.774420890416305824e-02 -1.222181547787496214e+00 -1.049355835654625313e+00 -5.411721630351539192e-01 1.695018925353360684e-01 4.966240946949283530e-01 -1.364182661526155638e+00 -9.628864410249997341e-02 4.317612243775053593e-01 6.068470392200955299e-01 -1.169085846281018165e-01 2.168630050768541040e-01 -2.071618720929728763e-01 2.232633041273625329e-02
1.590153388928214340e-01 -4.307507293295280149e-01 8.204030911375471968e-02 -4.336024429255626034e-01 -2.033933030338353765e-01 1.433927491507713536e-01 -7.332586276060923391e-02 3.713196748437643246e-01 -3.779408316740834883e-01 -4.428992956149449545e-02 2.915565405661312282e-01 -6.827801550679570008e-02 2.497921030046015012e-01 2.051446872300115853e-01 9.140899843140150305e-02 1.632641900621878139e-01 -6.820556181372156024e-02 2.958787196037188094e-01 -2.085344813401184688e-02 -1.656713598848895963e-01 -1.665018776966997183e-01