 Entering Gaussian System, Link 0=g16
 Initial command:
 /home/sekinelabo/g16/l1.exe "/home/sekinelabo/g16temp/Gau-934418.inp" -scrdir="/home/sekinelabo/g16temp/"
 Entering Link 1 = /home/sekinelabo/g16/l1.exe PID=    934472.
  
 Copyright (c) 1988-2017, Gaussian, Inc.  All Rights Reserved.
  
 This is part of the Gaussian(R) 16 program.  It is based on
 the Gaussian(R) 09 system (copyright 2009, Gaussian, Inc.),
 the Gaussian(R) 03 system (copyright 2003, Gaussian, Inc.),
 the Gaussian(R) 98 system (copyright 1998, Gaussian, Inc.),
 the Gaussian(R) 94 system (copyright 1995, Gaussian, Inc.),
 the Gaussian 92(TM) system (copyright 1992, Gaussian, Inc.),
 the Gaussian 90(TM) system (copyright 1990, Gaussian, Inc.),
 the Gaussian 88(TM) system (copyright 1988, Gaussian, Inc.),
 the Gaussian 86(TM) system (copyright 1986, Carnegie Mellon
 University), and the Gaussian 82(TM) system (copyright 1983,
 Carnegie Mellon University). Gaussian is a federally registered
 trademark of Gaussian, Inc.
  
 This software contains proprietary and confidential information,
 including trade secrets, belonging to Gaussian, Inc.
  
 This software is provided under written license and may be
 used, copied, transmitted, or stored only in accord with that
 written license.
  
 The following legend is applicable only to US Government
 contracts under FAR:
  
                    RESTRICTED RIGHTS LEGEND
  
 Use, reproduction and disclosure by the US Government is
 subject to restrictions as set forth in subparagraphs (a)
 and (c) of the Commercial Computer Software - Restricted
 Rights clause in FAR 52.227-19.
  
 Gaussian, Inc.
 340 Quinnipiac St., Bldg. 40, Wallingford CT 06492
  
  
 ---------------------------------------------------------------
 Warning -- This program may not be used in any manner that
 competes with the business of Gaussian, Inc. or will provide
 assistance to any competitor of Gaussian, Inc.  The licensee
 of this program is prohibited from giving any competitor of
 Gaussian, Inc. access to this program.  By using this program,
 the user acknowledges that Gaussian, Inc. is engaged in the
 business of creating and licensing software in the field of
 computational chemistry and represents and warrants to the
 licensee that it is not a competitor of Gaussian, Inc. and that
 it will not use this program in any manner prohibited above.
 ---------------------------------------------------------------
  

 Cite this work as:
 Gaussian 16, Revision B.01,
 M. J. Frisch, G. W. Trucks, H. B. Schlegel, G. E. Scuseria, 
 M. A. Robb, J. R. Cheeseman, G. Scalmani, V. Barone, 
 G. A. Petersson, H. Nakatsuji, X. Li, M. Caricato, A. V. Marenich, 
 J. Bloino, B. G. Janesko, R. Gomperts, B. Mennucci, H. P. Hratchian, 
 J. V. Ortiz, A. F. Izmaylov, J. L. Sonnenberg, D. Williams-Young, 
 F. Ding, F. Lipparini, F. Egidi, J. Goings, B. Peng, A. Petrone, 
 T. Henderson, D. Ranasinghe, V. G. Zakrzewski, J. Gao, N. Rega, 
 G. Zheng, W. Liang, M. Hada, M. Ehara, K. Toyota, R. Fukuda, 
 J. Hasegawa, M. Ishida, T. Nakajima, Y. Honda, O. Kitao, H. Nakai, 
 T. Vreven, K. Throssell, J. A. Montgomery, Jr., J. E. Peralta, 
 F. Ogliaro, M. J. Bearpark, J. J. Heyd, E. N. Brothers, K. N. Kudin, 
 V. N. Staroverov, T. A. Keith, R. Kobayashi, J. Normand, 
 K. Raghavachari, A. P. Rendell, J. C. Burant, S. S. Iyengar, 
 J. Tomasi, M. Cossi, J. M. Millam, M. Klene, C. Adamo, R. Cammi, 
 J. W. Ochterski, R. L. Martin, K. Morokuma, O. Farkas, 
 J. B. Foresman, and D. J. Fox, Gaussian, Inc., Wallingford CT, 2016.
 
 ******************************************
 Gaussian 16:  ES64L-G16RevB.01 20-Dec-2017
                21-Nov-2023 
 ******************************************
 %nprocshared=14
 Will use up to   14 processors via shared memory.
 -------------------------
 #P B3LYP/6-311+g(d) force
 -------------------------
 1/10=7,30=1,38=1/1,3;
 2/12=2,17=6,18=5,40=1/2;
 3/5=4,6=6,7=11,11=2,25=1,30=1,71=1,74=-5/1,2,3;
 4//1;
 5/5=2,38=5/2;
 6/7=2,8=2,9=2,10=2,28=1/1;
 7/29=1/1,2,3,16;
 1/10=7,30=1/3;
 99//99;
 Leave Link    1 at Tue Nov 21 11:40:18 2023, MaxMem=           0 cpu:               0.4 elap:               0.5
 (Enter /home/sekinelabo/g16/l101.exe)
 -----
 DPGEN
 -----
 Symbolic Z-matrix:
 Charge =  0 Multiplicity = 2
 Na                    9.32745   0.30592   1.78411 
 Na                    11.0513   2.0552    0.13253 
 Na                    9.06975   4.71962   0.11328 
 Na                    6.97596   4.6986    2.3218 
 Na                    4.92166   2.19161   1.9228 
 Na                    2.5145    2.08507   0.24531 
 Na                    0.44834   2.09594   2.44785 
 
 ITRead=  0  0  0  0  0  0  0
 MicOpt= -1 -1 -1 -1 -1 -1 -1
 NAtoms=      7 NQM=        7 NQMF=       0 NMMI=      0 NMMIF=      0
                NMic=       0 NMicF=      0.
                    Isotopes and Nuclear Properties:
 (Nuclear quadrupole moments (NQMom) in fm**2, nuclear magnetic moments (NMagM)
  in nuclear magnetons)

  Atom         1           2           3           4           5           6           7
 IAtWgt=          23          23          23          23          23          23          23
 AtmWgt=  22.9897697  22.9897697  22.9897697  22.9897697  22.9897697  22.9897697  22.9897697
 NucSpn=           3           3           3           3           3           3           3
 AtZEff=  -0.0000000  -0.0000000  -0.0000000  -0.0000000  -0.0000000  -0.0000000  -0.0000000
 NQMom=   10.4000000  10.4000000  10.4000000  10.4000000  10.4000000  10.4000000  10.4000000
 NMagM=    2.2175200   2.2175200   2.2175200   2.2175200   2.2175200   2.2175200   2.2175200
 AtZNuc=  11.0000000  11.0000000  11.0000000  11.0000000  11.0000000  11.0000000  11.0000000
 Leave Link  101 at Tue Nov 21 11:40:20 2023, MaxMem=   104857600 cpu:               2.4 elap:               2.4
 (Enter /home/sekinelabo/g16/l103.exe)

 GradGradGradGradGradGradGradGradGradGradGradGradGradGradGradGradGradGrad
 Berny optimization.
 Initialization pass.
 Trust Radius=3.00D-01 FncErr=1.00D-07 GrdErr=1.00D-07 EigMax=2.50D+02 EigMin=1.00D-04
 Number of steps in this run=      2 maximum allowed number of steps=      2.
 GradGradGradGradGradGradGradGradGradGradGradGradGradGradGradGradGradGrad

 Leave Link  103 at Tue Nov 21 11:40:21 2023, MaxMem=   104857600 cpu:               0.4 elap:               0.5
 (Enter /home/sekinelabo/g16/l202.exe)
                          Input orientation:                          
 ---------------------------------------------------------------------
 Center     Atomic      Atomic             Coordinates (Angstroms)
 Number     Number       Type             X           Y           Z
 ---------------------------------------------------------------------
      1         11           0        9.327450    0.305917    1.784110
      2         11           0       11.051300    2.055200    0.132527
      3         11           0        9.069750    4.719620    0.113280
      4         11           0        6.975960    4.698600    2.321800
      5         11           0        4.921660    2.191610    1.922800
      6         11           0        2.514500    2.085070    0.245307
      7         11           0        0.448343    2.095940    2.447850
 ---------------------------------------------------------------------
                    Distance matrix (angstroms):
                    1          2          3          4          5
     1  Na   0.000000
     2  Na   2.959624   0.000000
     3  Na   4.726400   3.320549   0.000000
     4  Na   5.011415   5.328121   3.043347   0.000000
     5  Na   4.794378   6.387188   5.183806   3.265631   0.000000
     6  Na   7.207606   8.537597   7.066087   5.571982   2.935942
     7  Na   9.082030  10.852883   9.309273   7.028479   4.505041
                    6          7
     6  Na   0.000000
     7  Na   3.019987   0.000000
 Stoichiometry    Na7(2)
 Framework group  C1[X(Na7)]
 Deg. of freedom    15
 Full point group                 C1      NOp   1
 Largest Abelian subgroup         C1      NOp   1
 Largest concise Abelian subgroup C1      NOp   1
                         Standard orientation:                         
 ---------------------------------------------------------------------
 Center     Atomic      Atomic             Coordinates (Angstroms)
 Number     Number       Type             X           Y           Z
 ---------------------------------------------------------------------
      1         11           0       -2.812891   -2.471771   -0.669315
      2         11           0       -4.797538   -0.700226    0.627672
      3         11           0       -2.950456    2.058860    0.669829
      4         11           0       -0.606964    1.987682   -1.270516
      5         11           0        1.491350   -0.372553   -0.439421
      6         11           0        3.681259   -0.230780    1.510950
      7         11           0        5.995240   -0.271213   -0.429199
 ---------------------------------------------------------------------
 Rotational constants (GHZ):           1.0660654           0.2259601           0.2058768
 Leave Link  202 at Tue Nov 21 11:40:22 2023, MaxMem=   104857600 cpu:               0.9 elap:               1.0
 (Enter /home/sekinelabo/g16/l301.exe)
 Standard basis: 6-311+G(d) (5D, 7F)
 Ernie: Thresh=  0.10000D-02 Tol=  0.10000D-05 Strict=F.
 There are   217 symmetry adapted cartesian basis functions of A   symmetry.
 There are   210 symmetry adapted basis functions of A   symmetry.
   210 basis functions,   350 primitive gaussians,   217 cartesian basis functions
    39 alpha electrons       38 beta electrons
       nuclear repulsion energy       278.7380624971 Hartrees.
 IExCor=  402 DFT=T Ex+Corr=B3LYP ExCW=0 ScaHFX=  0.200000
 ScaDFX=  0.800000  0.720000  1.000000  0.810000 ScalE2=  1.000000  1.000000
 IRadAn=      5 IRanWt=     -1 IRanGd=            0 ICorTp=0 IEmpDi=  4
 NAtoms=    7 NActive=    7 NUniq=    7 SFac= 1.00D+00 NAtFMM=   60 NAOKFM=F Big=F
 Integral buffers will be    131072 words long.
 Raffenetti 2 integral format.
 Two-electron integral symmetry is turned on.
 Leave Link  301 at Tue Nov 21 11:40:23 2023, MaxMem=   104857600 cpu:               0.7 elap:               0.7
 (Enter /home/sekinelabo/g16/l302.exe)
 NPDir=0 NMtPBC=     1 NCelOv=     1 NCel=       1 NClECP=     1 NCelD=      1
         NCelK=      1 NCelE2=     1 NClLst=     1 CellRange=     0.0.
 One-electron integrals computed using PRISM.
 One-electron integral symmetry used in STVInt
 NBasis=   210 RedAO= T EigKep=  5.81D-06  NBF=   210
 NBsUse=   210 1.00D-06 EigRej= -1.00D+00 NBFU=   210
 Precomputing XC quadrature grid using
 IXCGrd= 4 IRadAn=           5 IRanWt=          -1 IRanGd=           0 AccXCQ= 0.00D+00.
 Generated NRdTot=       0 NPtTot=           0 NUsed=           0 NTot=          32
 NSgBfM=   202   202   202   202   202 MxSgAt=     7 MxSgA2=     7.
 Leave Link  302 at Tue Nov 21 11:40:54 2023, MaxMem=   104857600 cpu:              28.9 elap:              31.1
 (Enter /home/sekinelabo/g16/l303.exe)
 DipDrv:  MaxL=1.
 Leave Link  303 at Tue Nov 21 11:40:56 2023, MaxMem=   104857600 cpu:               2.5 elap:               2.5
 (Enter /home/sekinelabo/g16/l401.exe)
 ExpMin= 7.60D-03 ExpMax= 3.62D+04 ExpMxC= 1.21D+03 IAcc=3 IRadAn=         5 AccDes= 0.00D+00
 Harris functional with IExCor=  402 and IRadAn=       5 diagonalized for initial guess.
 HarFok:  IExCor=  402 AccDes= 0.00D+00 IRadAn=         5 IDoV= 1 UseB2=F ITyADJ=14
 ICtDFT=  3500011 ScaDFX=  1.000000  1.000000  1.000000  1.000000
 FoFCou: FMM=F IPFlag=           0 FMFlag=      100000 FMFlg1=           0
         NFxFlg=           0 DoJE=T BraDBF=F KetDBF=T FulRan=T
         wScrn=  0.000000 ICntrl=       500 IOpCl=  0 I1Cent=   200000004 NGrid=           0
         NMat0=    1 NMatS0=      1 NMatT0=    0 NMatD0=    1 NMtDS0=    0 NMtDT0=    0
 Petite list used in FoFCou.
 Harris En= -1135.87563403211    
 JPrj=0 DoOrth=F DoCkMO=F.
 Initial guess <Sx>= 0.0000 <Sy>= 0.0000 <Sz>= 0.5000 <S**2>= 0.7500 S= 0.5000
 Leave Link  401 at Tue Nov 21 11:41:15 2023, MaxMem=   104857600 cpu:              17.1 elap:              18.5
 (Enter /home/sekinelabo/g16/l502.exe)
 Integral symmetry usage will be decided dynamically.
 UHF open shell SCF:
 Using DIIS extrapolation, IDIIS=  1040.
 NGot=   104857600 LenX=   104758426 LenY=   104710896
 Requested convergence on RMS density matrix=1.00D-08 within 128 cycles.
 Requested convergence on MAX density matrix=1.00D-06.
 Requested convergence on             energy=1.00D-06.
 No special actions if energy rises.
 Fock matrices will be formed incrementally for  20 cycles.

 Cycle   1  Pass 1  IDiag  1:
 FoFJK:  IHMeth= 1 ICntrl=       0 DoSepK=F KAlg= 0 I1Cent=           0 FoldK=F
 IRaf= 840000000 NMat=       1 IRICut=       1 DoRegI=T DoRafI=F ISym2E= 0 IDoP0=0 IntGTp=1.
 FoFCou: FMM=F IPFlag=           0 FMFlag=      100000 FMFlg1=           0
         NFxFlg=           0 DoJE=F BraDBF=F KetDBF=F FulRan=T
         wScrn=  0.000000 ICntrl=         0 IOpCl=  1 I1Cent=           0 NGrid=           0
         NMat0=    1 NMatS0=      1 NMatT0=    0 NMatD0=    1 NMtDS0=    0 NMtDT0=    0
 Symmetry not used in FoFCou.
 E= -1136.07639353986    
 DIIS: error= 8.68D-03 at cycle   1 NSaved=   1.
 NSaved= 1 IEnMin= 1 EnMin= -1136.07639353986     IErMin= 1 ErrMin= 8.68D-03
 ErrMax= 8.68D-03  0.00D+00 EMaxC= 1.00D-01 BMatC= 1.83D-01 BMatP= 1.83D-01
 IDIUse=3 WtCom= 9.13D-01 WtEn= 8.68D-02
 Coeff-Com:  0.100D+01
 Coeff-En:   0.100D+01
 Coeff:      0.100D+01
 Gap=     0.032 Goal=   None    Shift=    0.000
 Gap=     0.031 Goal=   None    Shift=    0.000
 GapD=    0.031 DampG=0.250 DampE=1.000 DampFc=0.2500 IDamp=-1.
 Damping current iteration by 2.50D-01
 RMSDP=5.32D-03 MaxDP=3.18D-01              OVMax= 2.91D-01

 Cycle   2  Pass 1  IDiag  1:
 RMSU=  1.19D-03    CP:  9.75D-01
 E= -1136.08514450746     Delta-E=       -0.008750967600 Rises=F Damp=T
 DIIS: error= 6.28D-03 at cycle   2 NSaved=   2.
 NSaved= 2 IEnMin= 2 EnMin= -1136.08514450746     IErMin= 2 ErrMin= 6.28D-03
 ErrMax= 6.28D-03  0.00D+00 EMaxC= 1.00D-01 BMatC= 7.10D-02 BMatP= 1.83D-01
 IDIUse=3 WtCom= 9.37D-01 WtEn= 6.28D-02
 Coeff-Com: -0.129D+01 0.229D+01
 Coeff-En:   0.000D+00 0.100D+01
 Coeff:     -0.121D+01 0.221D+01
 Gap=     0.054 Goal=   None    Shift=    0.000
 Gap=     0.043 Goal=   None    Shift=    0.000
 RMSDP=4.54D-03 MaxDP=4.61D-01 DE=-8.75D-03 OVMax= 3.35D-01

 Cycle   3  Pass 1  IDiag  1:
 RMSU=  2.86D-03    CP:  8.75D-01  3.00D+00
 E= -1136.09699656031     Delta-E=       -0.011852052845 Rises=F Damp=F
 DIIS: error= 2.59D-03 at cycle   3 NSaved=   3.
 NSaved= 3 IEnMin= 3 EnMin= -1136.09699656031     IErMin= 3 ErrMin= 2.59D-03
 ErrMax= 2.59D-03  0.00D+00 EMaxC= 1.00D-01 BMatC= 4.08D-03 BMatP= 7.10D-02
 IDIUse=3 WtCom= 9.74D-01 WtEn= 2.59D-02
 Coeff-Com: -0.324D+00 0.548D+00 0.776D+00
 Coeff-En:   0.000D+00 0.000D+00 0.100D+01
 Coeff:     -0.316D+00 0.534D+00 0.782D+00
 Gap=     0.042 Goal=   None    Shift=    0.000
 Gap=     0.040 Goal=   None    Shift=    0.000
 RMSDP=2.10D-03 MaxDP=1.55D-01 DE=-1.19D-02 OVMax= 2.55D-01

 Cycle   4  Pass 1  IDiag  1:
 RMSU=  1.65D-03    CP:  8.77D-01  3.00D+00  5.46D-01
 E= -1136.09331081947     Delta-E=        0.003685740832 Rises=F Damp=F
 DIIS: error= 3.43D-03 at cycle   4 NSaved=   4.
 NSaved= 4 IEnMin= 3 EnMin= -1136.09699656031     IErMin= 3 ErrMin= 2.59D-03
 ErrMax= 3.43D-03  0.00D+00 EMaxC= 1.00D-01 BMatC= 6.65D-03 BMatP= 4.08D-03
 IDIUse=3 WtCom= 1.46D-01 WtEn= 8.54D-01
 Coeff-Com: -0.353D-01 0.519D-01 0.559D+00 0.425D+00
 Coeff-En:   0.000D+00 0.000D+00 0.585D+00 0.415D+00
 Coeff:     -0.515D-02 0.756D-02 0.582D+00 0.416D+00
 Gap=     0.041 Goal=   None    Shift=    0.000
 Gap=     0.037 Goal=   None    Shift=    0.000
 RMSDP=1.14D-03 MaxDP=7.51D-02 DE= 3.69D-03 OVMax= 1.56D-01

 Cycle   5  Pass 1  IDiag  1:
 RMSU=  3.27D-04    CP:  8.75D-01  3.00D+00  8.13D-01  5.32D-01
 E= -1136.10364429783     Delta-E=       -0.010333478351 Rises=F Damp=F
 DIIS: error= 2.98D-04 at cycle   5 NSaved=   5.
 NSaved= 5 IEnMin= 5 EnMin= -1136.10364429783     IErMin= 5 ErrMin= 2.98D-04
 ErrMax= 2.98D-04  0.00D+00 EMaxC= 1.00D-01 BMatC= 7.96D-05 BMatP= 4.08D-03
 IDIUse=3 WtCom= 9.97D-01 WtEn= 2.98D-03
 Coeff-Com:  0.888D-02-0.126D-01 0.137D+00 0.540D-01 0.812D+00
 Coeff-En:   0.000D+00 0.000D+00 0.000D+00 0.000D+00 0.100D+01
 Coeff:      0.885D-02-0.125D-01 0.137D+00 0.539D-01 0.813D+00
 Gap=     0.040 Goal=   None    Shift=    0.000
 Gap=     0.037 Goal=   None    Shift=    0.000
 RMSDP=3.08D-04 MaxDP=1.97D-02 DE=-1.03D-02 OVMax= 2.10D-02

 Cycle   6  Pass 1  IDiag  1:
 RMSU=  2.80D-04    CP:  8.75D-01  3.00D+00  8.56D-01  5.55D-01  1.05D+00
 E= -1136.10373918855     Delta-E=       -0.000094890721 Rises=F Damp=F
 DIIS: error= 2.41D-04 at cycle   6 NSaved=   6.
 NSaved= 6 IEnMin= 6 EnMin= -1136.10373918855     IErMin= 6 ErrMin= 2.41D-04
 ErrMax= 2.41D-04  0.00D+00 EMaxC= 1.00D-01 BMatC= 3.75D-05 BMatP= 7.96D-05
 IDIUse=3 WtCom= 9.98D-01 WtEn= 2.41D-03
 Coeff-Com:  0.881D-02-0.124D-01-0.172D-01-0.518D-01 0.478D+00 0.594D+00
 Coeff-En:   0.000D+00 0.000D+00 0.000D+00 0.000D+00 0.000D+00 0.100D+01
 Coeff:      0.879D-02-0.124D-01-0.172D-01-0.516D-01 0.477D+00 0.595D+00
 Gap=     0.040 Goal=   None    Shift=    0.000
 Gap=     0.038 Goal=   None    Shift=    0.000
 RMSDP=1.47D-04 MaxDP=6.80D-03 DE=-9.49D-05 OVMax= 9.69D-03

 Cycle   7  Pass 1  IDiag  1:
 RMSU=  1.03D-04    CP:  8.75D-01  3.00D+00  8.49D-01  5.46D-01  1.36D+00
                    CP:  1.03D+00
 E= -1136.10379744007     Delta-E=       -0.000058251521 Rises=F Damp=F
 DIIS: error= 6.41D-05 at cycle   7 NSaved=   7.
 NSaved= 7 IEnMin= 7 EnMin= -1136.10379744007     IErMin= 7 ErrMin= 6.41D-05
 ErrMax= 6.41D-05  0.00D+00 EMaxC= 1.00D-01 BMatC= 2.54D-06 BMatP= 3.75D-05
 IDIUse=1 WtCom= 1.00D+00 WtEn= 0.00D+00
 Coeff-Com:  0.139D-03-0.160D-03-0.197D-01-0.214D-01 0.129D-01 0.140D+00
 Coeff-Com:  0.889D+00
 Coeff:      0.139D-03-0.160D-03-0.197D-01-0.214D-01 0.129D-01 0.140D+00
 Coeff:      0.889D+00
 Gap=     0.041 Goal=   None    Shift=    0.000
 Gap=     0.038 Goal=   None    Shift=    0.000
 RMSDP=8.15D-05 MaxDP=4.38D-03 DE=-5.83D-05 OVMax= 8.29D-03

 Cycle   8  Pass 1  IDiag  1:
 RMSU=  4.78D-05    CP:  8.75D-01  3.00D+00  8.53D-01  5.49D-01  1.43D+00
                    CP:  1.20D+00  1.34D+00
 E= -1136.10381159321     Delta-E=       -0.000014153144 Rises=F Damp=F
 DIIS: error= 3.47D-05 at cycle   8 NSaved=   8.
 NSaved= 8 IEnMin= 8 EnMin= -1136.10381159321     IErMin= 8 ErrMin= 3.47D-05
 ErrMax= 3.47D-05  0.00D+00 EMaxC= 1.00D-01 BMatC= 7.31D-07 BMatP= 2.54D-06
 IDIUse=1 WtCom= 1.00D+00 WtEn= 0.00D+00
 Coeff-Com: -0.126D-03 0.264D-03-0.256D-02 0.408D-02-0.778D-01-0.116D+00
 Coeff-Com: -0.558D-01 0.125D+01
 Coeff:     -0.126D-03 0.264D-03-0.256D-02 0.408D-02-0.778D-01-0.116D+00
 Coeff:     -0.558D-01 0.125D+01
 Gap=     0.041 Goal=   None    Shift=    0.000
 Gap=     0.038 Goal=   None    Shift=    0.000
 RMSDP=7.32D-05 MaxDP=3.29D-03 DE=-1.42D-05 OVMax= 7.42D-03

 Cycle   9  Pass 1  IDiag  1:
 RMSU=  2.91D-05    CP:  8.75D-01  3.00D+00  8.51D-01  5.49D-01  1.51D+00
                    CP:  1.32D+00  1.76D+00  1.62D+00
 E= -1136.10381962468     Delta-E=       -0.000008031472 Rises=F Damp=F
 DIIS: error= 2.43D-05 at cycle   9 NSaved=   9.
 NSaved= 9 IEnMin= 9 EnMin= -1136.10381962468     IErMin= 9 ErrMin= 2.43D-05
 ErrMax= 2.43D-05  0.00D+00 EMaxC= 1.00D-01 BMatC= 3.61D-07 BMatP= 7.31D-07
 IDIUse=1 WtCom= 1.00D+00 WtEn= 0.00D+00
 Coeff-Com:  0.193D-03-0.225D-03 0.431D-02 0.681D-02-0.261D-01-0.815D-01
 Coeff-Com: -0.336D+00 0.593D+00 0.839D+00
 Coeff:      0.193D-03-0.225D-03 0.431D-02 0.681D-02-0.261D-01-0.815D-01
 Coeff:     -0.336D+00 0.593D+00 0.839D+00
 Gap=     0.041 Goal=   None    Shift=    0.000
 Gap=     0.038 Goal=   None    Shift=    0.000
 RMSDP=3.91D-05 MaxDP=2.20D-03 DE=-8.03D-06 OVMax= 4.21D-03

 Cycle  10  Pass 1  IDiag  1:
 RMSU=  1.35D-05    CP:  8.75D-01  3.00D+00  8.52D-01  5.50D-01  1.51D+00
                    CP:  1.36D+00  1.93D+00  2.18D+00  1.43D+00
 E= -1136.10382214523     Delta-E=       -0.000002520547 Rises=F Damp=F
 DIIS: error= 1.25D-05 at cycle  10 NSaved=  10.
 NSaved=10 IEnMin=10 EnMin= -1136.10382214523     IErMin=10 ErrMin= 1.25D-05
 ErrMax= 1.25D-05  0.00D+00 EMaxC= 1.00D-01 BMatC= 7.65D-08 BMatP= 3.61D-07
 IDIUse=1 WtCom= 1.00D+00 WtEn= 0.00D+00
 Coeff-Com:  0.121D-03-0.165D-03 0.234D-02-0.130D-02 0.364D-01 0.283D-01
 Coeff-Com: -0.100D+00-0.242D+00 0.950D-01 0.118D+01
 Coeff:      0.121D-03-0.165D-03 0.234D-02-0.130D-02 0.364D-01 0.283D-01
 Coeff:     -0.100D+00-0.242D+00 0.950D-01 0.118D+01
 Gap=     0.041 Goal=   None    Shift=    0.000
 Gap=     0.038 Goal=   None    Shift=    0.000
 RMSDP=2.68D-05 MaxDP=1.51D-03 DE=-2.52D-06 OVMax= 2.70D-03

 Cycle  11  Pass 1  IDiag  1:
 RMSU=  7.86D-06    CP:  8.75D-01  3.00D+00  8.52D-01  5.49D-01  1.50D+00
                    CP:  1.37D+00  2.00D+00  2.56D+00  1.91D+00  1.56D+00
 E= -1136.10382299869     Delta-E=       -0.000000853464 Rises=F Damp=F
 DIIS: error= 5.55D-06 at cycle  11 NSaved=  11.
 NSaved=11 IEnMin=11 EnMin= -1136.10382299869     IErMin=11 ErrMin= 5.55D-06
 ErrMax= 5.55D-06  0.00D+00 EMaxC= 1.00D-01 BMatC= 1.93D-08 BMatP= 7.65D-08
 IDIUse=1 WtCom= 1.00D+00 WtEn= 0.00D+00
 Coeff-Com:  0.149D-03-0.209D-03 0.924D-04-0.255D-02 0.249D-01 0.340D-01
 Coeff-Com:  0.363D-01-0.243D+00-0.177D+00 0.396D+00 0.932D+00
 Coeff:      0.149D-03-0.209D-03 0.924D-04-0.255D-02 0.249D-01 0.340D-01
 Coeff:      0.363D-01-0.243D+00-0.177D+00 0.396D+00 0.932D+00
 Gap=     0.041 Goal=   None    Shift=    0.000
 Gap=     0.038 Goal=   None    Shift=    0.000
 RMSDP=1.30D-05 MaxDP=7.32D-04 DE=-8.53D-07 OVMax= 1.28D-03

 Cycle  12  Pass 1  IDiag  1:
 RMSU=  2.19D-06    CP:  8.75D-01  3.00D+00  8.52D-01  5.49D-01  1.50D+00
                    CP:  1.37D+00  2.04D+00  2.71D+00  2.15D+00  1.99D+00
                    CP:  1.42D+00
 E= -1136.10382315103     Delta-E=       -0.000000152334 Rises=F Damp=F
 DIIS: error= 1.60D-06 at cycle  12 NSaved=  12.
 NSaved=12 IEnMin=12 EnMin= -1136.10382315103     IErMin=12 ErrMin= 1.60D-06
 ErrMax= 1.60D-06  0.00D+00 EMaxC= 1.00D-01 BMatC= 2.28D-09 BMatP= 1.93D-08
 IDIUse=1 WtCom= 1.00D+00 WtEn= 0.00D+00
 Coeff-Com:  0.371D-04-0.516D-04-0.450D-03-0.556D-03 0.580D-03 0.665D-02
 Coeff-Com:  0.296D-01-0.377D-01-0.718D-01-0.811D-01 0.237D+00 0.918D+00
 Coeff:      0.371D-04-0.516D-04-0.450D-03-0.556D-03 0.580D-03 0.665D-02
 Coeff:      0.296D-01-0.377D-01-0.718D-01-0.811D-01 0.237D+00 0.918D+00
 Gap=     0.041 Goal=   None    Shift=    0.000
 Gap=     0.038 Goal=   None    Shift=    0.000
 RMSDP=4.29D-06 MaxDP=2.25D-04 DE=-1.52D-07 OVMax= 4.59D-04

 Cycle  13  Pass 1  IDiag  1:
 RMSU=  6.59D-07    CP:  8.75D-01  3.00D+00  8.52D-01  5.49D-01  1.50D+00
                    CP:  1.37D+00  2.05D+00  2.75D+00  2.22D+00  2.11D+00
                    CP:  1.65D+00  1.50D+00
 E= -1136.10382316642     Delta-E=       -0.000000015397 Rises=F Damp=F
 DIIS: error= 6.98D-07 at cycle  13 NSaved=  13.
 NSaved=13 IEnMin=13 EnMin= -1136.10382316642     IErMin=13 ErrMin= 6.98D-07
 ErrMax= 6.98D-07  0.00D+00 EMaxC= 1.00D-01 BMatC= 3.35D-10 BMatP= 2.28D-09
 IDIUse=1 WtCom= 1.00D+00 WtEn= 0.00D+00
 Coeff-Com: -0.196D-04 0.276D-04-0.233D-03 0.265D-03-0.320D-02-0.359D-02
 Coeff-Com: -0.263D-02 0.275D-01 0.192D-01-0.593D-01-0.849D-01 0.638D-01
 Coeff-Com:  0.104D+01
 Coeff:     -0.196D-04 0.276D-04-0.233D-03 0.265D-03-0.320D-02-0.359D-02
 Coeff:     -0.263D-02 0.275D-01 0.192D-01-0.593D-01-0.849D-01 0.638D-01
 Coeff:      0.104D+01
 Gap=     0.041 Goal=   None    Shift=    0.000
 Gap=     0.038 Goal=   None    Shift=    0.000
 RMSDP=1.18D-06 MaxDP=7.03D-05 DE=-1.54D-08 OVMax= 9.66D-05

 Cycle  14  Pass 1  IDiag  1:
 RMSU=  3.32D-07    CP:  8.75D-01  3.00D+00  8.52D-01  5.49D-01  1.50D+00
                    CP:  1.37D+00  2.05D+00  2.76D+00  2.23D+00  2.13D+00
                    CP:  1.72D+00  1.62D+00  1.92D+00
 E= -1136.10382316816     Delta-E=       -0.000000001732 Rises=F Damp=F
 DIIS: error= 4.35D-07 at cycle  14 NSaved=  14.
 NSaved=14 IEnMin=14 EnMin= -1136.10382316816     IErMin=14 ErrMin= 4.35D-07
 ErrMax= 4.35D-07  0.00D+00 EMaxC= 1.00D-01 BMatC= 6.59D-11 BMatP= 3.35D-10
 IDIUse=1 WtCom= 1.00D+00 WtEn= 0.00D+00
 Coeff-Com: -0.656D-05 0.884D-05 0.503D-04 0.395D-04 0.436D-03-0.222D-03
 Coeff-Com: -0.326D-02 0.184D-02 0.511D-02 0.143D-01-0.667D-02-0.118D+00
 Coeff-Com: -0.870D-01 0.119D+01
 Coeff:     -0.656D-05 0.884D-05 0.503D-04 0.395D-04 0.436D-03-0.222D-03
 Coeff:     -0.326D-02 0.184D-02 0.511D-02 0.143D-01-0.667D-02-0.118D+00
 Coeff:     -0.870D-01 0.119D+01
 Gap=     0.041 Goal=   None    Shift=    0.000
 Gap=     0.038 Goal=   None    Shift=    0.000
 RMSDP=5.20D-07 MaxDP=4.01D-05 DE=-1.73D-09 OVMax= 5.28D-05

 Cycle  15  Pass 1  IDiag  1:
 RMSU=  2.71D-07    CP:  8.75D-01  3.00D+00  8.52D-01  5.49D-01  1.50D+00
                    CP:  1.37D+00  2.05D+00  2.76D+00  2.23D+00  2.13D+00
                    CP:  1.73D+00  1.65D+00  2.43D+00  1.48D+00
 E= -1136.10382316863     Delta-E=       -0.000000000471 Rises=F Damp=F
 DIIS: error= 2.63D-07 at cycle  15 NSaved=  15.
 NSaved=15 IEnMin=15 EnMin= -1136.10382316863     IErMin=15 ErrMin= 2.63D-07
 ErrMax= 2.63D-07  0.00D+00 EMaxC= 1.00D-01 BMatC= 3.03D-11 BMatP= 6.59D-11
 IDIUse=1 WtCom= 1.00D+00 WtEn= 0.00D+00
 Coeff-Com:  0.360D-05-0.521D-05 0.795D-04-0.508D-04 0.107D-02 0.936D-03
 Coeff-Com: -0.679D-03-0.642D-02-0.346D-02 0.201D-01 0.200D-01-0.660D-01
 Coeff-Com: -0.310D+00 0.559D+00 0.786D+00
 Coeff:      0.360D-05-0.521D-05 0.795D-04-0.508D-04 0.107D-02 0.936D-03
 Coeff:     -0.679D-03-0.642D-02-0.346D-02 0.201D-01 0.200D-01-0.660D-01
 Coeff:     -0.310D+00 0.559D+00 0.786D+00
 Gap=     0.041 Goal=   None    Shift=    0.000
 Gap=     0.038 Goal=   None    Shift=    0.000
 RMSDP=2.96D-07 MaxDP=1.80D-05 DE=-4.71D-10 OVMax= 4.44D-05

 Cycle  16  Pass 1  IDiag  1:
 RMSU=  1.04D-07    CP:  8.75D-01  3.00D+00  8.52D-01  5.49D-01  1.50D+00
                    CP:  1.37D+00  2.05D+00  2.76D+00  2.24D+00  2.14D+00
                    CP:  1.74D+00  1.65D+00  2.64D+00  1.97D+00  1.36D+00
 E= -1136.10382316881     Delta-E=       -0.000000000183 Rises=F Damp=F
 DIIS: error= 1.43D-07 at cycle  16 NSaved=  16.
 NSaved=16 IEnMin=16 EnMin= -1136.10382316881     IErMin=16 ErrMin= 1.43D-07
 ErrMax= 1.43D-07  0.00D+00 EMaxC= 1.00D-01 BMatC= 9.34D-12 BMatP= 3.03D-11
 IDIUse=1 WtCom= 1.00D+00 WtEn= 0.00D+00
 Coeff-Com:  0.659D-05-0.910D-05 0.146D-04-0.337D-04 0.343D-03 0.493D-03
 Coeff-Com:  0.567D-03-0.325D-02-0.287D-02 0.215D-02 0.112D-01 0.215D-01
 Coeff-Com: -0.889D-01-0.276D+00 0.271D+00 0.106D+01
 Coeff:      0.659D-05-0.910D-05 0.146D-04-0.337D-04 0.343D-03 0.493D-03
 Coeff:      0.567D-03-0.325D-02-0.287D-02 0.215D-02 0.112D-01 0.215D-01
 Coeff:     -0.889D-01-0.276D+00 0.271D+00 0.106D+01
 Gap=     0.041 Goal=   None    Shift=    0.000
 Gap=     0.038 Goal=   None    Shift=    0.000
 RMSDP=2.36D-07 MaxDP=1.33D-05 DE=-1.83D-10 OVMax= 3.42D-05

 Cycle  17  Pass 1  IDiag  1:
 RMSU=  5.84D-08    CP:  8.75D-01  3.00D+00  8.52D-01  5.49D-01  1.50D+00
                    CP:  1.37D+00  2.05D+00  2.76D+00  2.24D+00  2.14D+00
                    CP:  1.74D+00  1.65D+00  2.80D+00  2.22D+00  1.87D+00
                    CP:  1.56D+00
 E= -1136.10382316889     Delta-E=       -0.000000000077 Rises=F Damp=F
 DIIS: error= 6.19D-08 at cycle  17 NSaved=  17.
 NSaved=17 IEnMin=17 EnMin= -1136.10382316889     IErMin=17 ErrMin= 6.19D-08
 ErrMax= 6.19D-08  0.00D+00 EMaxC= 1.00D-01 BMatC= 1.66D-12 BMatP= 9.34D-12
 IDIUse=1 WtCom= 1.00D+00 WtEn= 0.00D+00
 Coeff-Com:  0.849D-06-0.118D-05-0.161D-04-0.121D-04 0.137D-04 0.102D-03
 Coeff-Com:  0.383D-03-0.788D-03-0.664D-03-0.133D-02 0.256D-02 0.150D-01
 Coeff-Com:  0.362D-01-0.208D+00-0.644D-01 0.195D+00 0.103D+01
 Coeff:      0.849D-06-0.118D-05-0.161D-04-0.121D-04 0.137D-04 0.102D-03
 Coeff:      0.383D-03-0.788D-03-0.664D-03-0.133D-02 0.256D-02 0.150D-01
 Coeff:      0.362D-01-0.208D+00-0.644D-01 0.195D+00 0.103D+01
 Gap=     0.041 Goal=   None    Shift=    0.000
 Gap=     0.038 Goal=   None    Shift=    0.000
 RMSDP=1.09D-07 MaxDP=5.55D-06 DE=-7.69D-11 OVMax= 1.65D-05

 Cycle  18  Pass 1  IDiag  1:
 RMSU=  2.49D-08    CP:  8.75D-01  3.00D+00  8.52D-01  5.49D-01  1.50D+00
                    CP:  1.37D+00  2.05D+00  2.76D+00  2.24D+00  2.14D+00
                    CP:  1.74D+00  1.64D+00  2.84D+00  2.36D+00  2.09D+00
                    CP:  2.00D+00  1.67D+00
 E= -1136.10382316891     Delta-E=       -0.000000000022 Rises=F Damp=F
 DIIS: error= 3.20D-08 at cycle  18 NSaved=  18.
 NSaved=18 IEnMin=18 EnMin= -1136.10382316891     IErMin=18 ErrMin= 3.20D-08
 ErrMax= 3.20D-08  0.00D+00 EMaxC= 1.00D-01 BMatC= 2.99D-13 BMatP= 1.66D-12
 IDIUse=1 WtCom= 1.00D+00 WtEn= 0.00D+00
 Coeff-Com: -0.887D-06 0.122D-05-0.608D-05 0.341D-05-0.736D-04-0.616D-04
 Coeff-Com: -0.380D-04 0.463D-03 0.324D-03-0.832D-03-0.133D-02-0.501D-03
 Coeff-Com:  0.213D-01 0.764D-02-0.343D-01-0.186D+00 0.140D+00 0.105D+01
 Coeff:     -0.887D-06 0.122D-05-0.608D-05 0.341D-05-0.736D-04-0.616D-04
 Coeff:     -0.380D-04 0.463D-03 0.324D-03-0.832D-03-0.133D-02-0.501D-03
 Coeff:      0.213D-01 0.764D-02-0.343D-01-0.186D+00 0.140D+00 0.105D+01
 Gap=     0.041 Goal=   None    Shift=    0.000
 Gap=     0.038 Goal=   None    Shift=    0.000
 RMSDP=5.04D-08 MaxDP=1.81D-06 DE=-2.23D-11 OVMax= 6.46D-06

 Cycle  19  Pass 1  IDiag  1:
 RMSU=  7.32D-09    CP:  8.75D-01  3.00D+00  8.52D-01  5.49D-01  1.50D+00
                    CP:  1.37D+00  2.05D+00  2.76D+00  2.24D+00  2.14D+00
                    CP:  1.74D+00  1.65D+00  2.85D+00  2.38D+00  2.16D+00
                    CP:  2.16D+00  2.15D+00  1.80D+00
 E= -1136.10382316891     Delta-E=       -0.000000000000 Rises=F Damp=F
 DIIS: error= 1.32D-08 at cycle  19 NSaved=  19.
 NSaved=19 IEnMin=19 EnMin= -1136.10382316891     IErMin=19 ErrMin= 1.32D-08
 ErrMax= 1.32D-08  0.00D+00 EMaxC= 1.00D-01 BMatC= 4.25D-14 BMatP= 2.99D-13
 IDIUse=1 WtCom= 1.00D+00 WtEn= 0.00D+00
 Coeff-Com: -0.117D-06 0.156D-06 0.243D-05 0.190D-05-0.296D-05-0.159D-04
 Coeff-Com: -0.248D-04 0.641D-04 0.111D-03 0.200D-03-0.459D-03-0.225D-02
 Coeff-Com: -0.679D-02 0.375D-01 0.528D-02-0.389D-01-0.190D+00 0.680D-01
 Coeff-Com:  0.113D+01
 Coeff:     -0.117D-06 0.156D-06 0.243D-05 0.190D-05-0.296D-05-0.159D-04
 Coeff:     -0.248D-04 0.641D-04 0.111D-03 0.200D-03-0.459D-03-0.225D-02
 Coeff:     -0.679D-02 0.375D-01 0.528D-02-0.389D-01-0.190D+00 0.680D-01
 Coeff:      0.113D+01
 Gap=     0.041 Goal=   None    Shift=    0.000
 Gap=     0.038 Goal=   None    Shift=    0.000
 RMSDP=2.54D-08 MaxDP=1.07D-06 DE=-4.55D-13 OVMax= 2.53D-06

 Cycle  20  Pass 1  IDiag  1:
 RMSU=  3.49D-09    CP:  8.75D-01  3.00D+00  8.52D-01  5.49D-01  1.50D+00
                    CP:  1.37D+00  2.05D+00  2.76D+00  2.24D+00  2.14D+00
                    CP:  1.74D+00  1.65D+00  2.85D+00  2.39D+00  2.17D+00
                    CP:  2.24D+00  2.39D+00  2.25D+00  1.87D+00
 E= -1136.10382316890     Delta-E=        0.000000000008 Rises=F Damp=F
 DIIS: error= 4.47D-09 at cycle  20 NSaved=  20.
 NSaved=20 IEnMin=19 EnMin= -1136.10382316891     IErMin=20 ErrMin= 4.47D-09
 ErrMax= 4.47D-09  0.00D+00 EMaxC= 1.00D-01 BMatC= 4.97D-15 BMatP= 4.25D-14
 IDIUse=1 WtCom= 1.00D+00 WtEn= 0.00D+00
 Coeff-Com:  0.353D-07-0.497D-07 0.105D-05-0.700D-06 0.141D-04 0.137D-04
 Coeff-Com:  0.150D-04-0.960D-04-0.761D-04 0.193D-03 0.309D-03 0.410D-04
 Coeff-Com: -0.308D-02-0.678D-03 0.490D-02 0.212D-01-0.298D-02-0.149D+00
 Coeff-Com: -0.518D-02 0.113D+01
 Coeff:      0.353D-07-0.497D-07 0.105D-05-0.700D-06 0.141D-04 0.137D-04
 Coeff:      0.150D-04-0.960D-04-0.761D-04 0.193D-03 0.309D-03 0.410D-04
 Coeff:     -0.308D-02-0.678D-03 0.490D-02 0.212D-01-0.298D-02-0.149D+00
 Coeff:     -0.518D-02 0.113D+01
 Gap=     0.041 Goal=   None    Shift=    0.000
 Gap=     0.038 Goal=   None    Shift=    0.000
 RMSDP=7.23D-09 MaxDP=3.52D-07 DE= 7.73D-12 OVMax= 3.75D-07

 SCF Done:  E(UB3LYP) =  -1136.10382317     A.U. after   20 cycles
            NFock= 20  Conv=0.72D-08     -V/T= 2.0028
 <Sx>= 0.0000 <Sy>= 0.0000 <Sz>= 0.5000 <S**2>= 0.7961 S= 0.5228
 <L.S>= 0.000000000000E+00
 KE= 1.132971420415D+03 PE=-3.286636890430D+03 EE= 7.388235843484D+02
 Annihilation of the first spin contaminant:
 S**2 before annihilation     0.7961,   after     0.7510
 Leave Link  502 at Tue Nov 21 11:50:12 2023, MaxMem=   104857600 cpu:             650.8 elap:             536.9
 (Enter /home/sekinelabo/g16/l601.exe)
 Copying SCF densities to generalized density rwf, IOpCl= 1 IROHF=0.

 **********************************************************************

            Population analysis using the SCF Density.

 **********************************************************************

 Orbital symmetries:
 Alpha Orbitals:
       Occupied  (A) (A) (A) (A) (A) (A) (A) (A) (A) (A) (A) (A)
                 (A) (A) (A) (A) (A) (A) (A) (A) (A) (A) (A) (A)
                 (A) (A) (A) (A) (A) (A) (A) (A) (A) (A) (A) (A)
                 (A) (A) (A)
       Virtual   (A) (A) (A) (A) (A) (A) (A) (A) (A) (A) (A) (A)
                 (A) (A) (A) (A) (A) (A) (A) (A) (A) (A) (A) (A)
                 (A) (A) (A) (A) (A) (A) (A) (A) (A) (A) (A) (A)
                 (A) (A) (A) (A) (A) (A) (A) (A) (A) (A) (A) (A)
                 (A) (A) (A) (A) (A) (A) (A) (A) (A) (A) (A) (A)
                 (A) (A) (A) (A) (A) (A) (A) (A) (A) (A) (A) (A)
                 (A) (A) (A) (A) (A) (A) (A) (A) (A) (A) (A) (A)
                 (A) (A) (A) (A) (A) (A) (A) (A) (A) (A) (A) (A)
                 (A) (A) (A) (A) (A) (A) (A) (A) (A) (A) (A) (A)
                 (A) (A) (A) (A) (A) (A) (A) (A) (A) (A) (A) (A)
                 (A) (A) (A) (A) (A) (A) (A) (A) (A) (A) (A) (A)
                 (A) (A) (A) (A) (A) (A) (A) (A) (A) (A) (A) (A)
                 (A) (A) (A) (A) (A) (A) (A) (A) (A) (A) (A) (A)
                 (A) (A) (A) (A) (A) (A) (A) (A) (A) (A) (A) (A)
                 (A) (A) (A)
 Beta  Orbitals:
       Occupied  (A) (A) (A) (A) (A) (A) (A) (A) (A) (A) (A) (A)
                 (A) (A) (A) (A) (A) (A) (A) (A) (A) (A) (A) (A)
                 (A) (A) (A) (A) (A) (A) (A) (A) (A) (A) (A) (A)
                 (A) (A)
       Virtual   (A) (A) (A) (A) (A) (A) (A) (A) (A) (A) (A) (A)
                 (A) (A) (A) (A) (A) (A) (A) (A) (A) (A) (A) (A)
                 (A) (A) (A) (A) (A) (A) (A) (A) (A) (A) (A) (A)
                 (A) (A) (A) (A) (A) (A) (A) (A) (A) (A) (A) (A)
                 (A) (A) (A) (A) (A) (A) (A) (A) (A) (A) (A) (A)
                 (A) (A) (A) (A) (A) (A) (A) (A) (A) (A) (A) (A)
                 (A) (A) (A) (A) (A) (A) (A) (A) (A) (A) (A) (A)
                 (A) (A) (A) (A) (A) (A) (A) (A) (A) (A) (A) (A)
                 (A) (A) (A) (A) (A) (A) (A) (A) (A) (A) (A) (A)
                 (A) (A) (A) (A) (A) (A) (A) (A) (A) (A) (A) (A)
                 (A) (A) (A) (A) (A) (A) (A) (A) (A) (A) (A) (A)
                 (A) (A) (A) (A) (A) (A) (A) (A) (A) (A) (A) (A)
                 (A) (A) (A) (A) (A) (A) (A) (A) (A) (A) (A) (A)
                 (A) (A) (A) (A) (A) (A) (A) (A) (A) (A) (A) (A)
                 (A) (A) (A) (A)
 The electronic state is 2-A.
 Alpha  occ. eigenvalues --  -38.45069 -38.45000 -38.44281 -38.44188 -38.44157
 Alpha  occ. eigenvalues --  -38.43301 -38.43277  -2.20889  -2.20874  -2.20105
 Alpha  occ. eigenvalues --   -2.20053  -2.20032  -2.19152  -2.19115  -1.14667
 Alpha  occ. eigenvalues --   -1.14612  -1.14534  -1.14518  -1.14500  -1.14415
 Alpha  occ. eigenvalues --   -1.13796  -1.13747  -1.13734  -1.13724  -1.13721
 Alpha  occ. eigenvalues --   -1.13689  -1.13672  -1.13669  -1.13632  -1.12832
 Alpha  occ. eigenvalues --   -1.12812  -1.12805  -1.12798  -1.12767  -1.12764
 Alpha  occ. eigenvalues --   -0.16375  -0.14909  -0.11842  -0.10952
 Alpha virt. eigenvalues --   -0.06862  -0.04985  -0.04537  -0.03585  -0.03222
 Alpha virt. eigenvalues --   -0.02610  -0.02008  -0.01595  -0.01059  -0.00688
 Alpha virt. eigenvalues --   -0.00040   0.00078   0.00293   0.00467   0.00550
 Alpha virt. eigenvalues --    0.00720   0.00781   0.00975   0.01022   0.01190
 Alpha virt. eigenvalues --    0.01344   0.01526   0.01623   0.01774   0.01794
 Alpha virt. eigenvalues --    0.01922   0.02066   0.02235   0.02307   0.02433
 Alpha virt. eigenvalues --    0.02577   0.02619   0.02680   0.02751   0.02908
 Alpha virt. eigenvalues --    0.02919   0.03109   0.03238   0.03312   0.03416
 Alpha virt. eigenvalues --    0.03581   0.03768   0.03888   0.04254   0.04341
 Alpha virt. eigenvalues --    0.04553   0.04954   0.05088   0.05180   0.05811
 Alpha virt. eigenvalues --    0.06059   0.06310   0.06365   0.07088   0.07403
 Alpha virt. eigenvalues --    0.07555   0.07688   0.07827   0.08084   0.08481
 Alpha virt. eigenvalues --    0.08662   0.08943   0.09197   0.09308   0.09799
 Alpha virt. eigenvalues --    0.10021   0.10276   0.10921   0.11289   0.11668
 Alpha virt. eigenvalues --    0.12184   0.12476   0.13103   0.13910   0.14462
 Alpha virt. eigenvalues --    0.14844   0.15198   0.15398   0.16323   0.17322
 Alpha virt. eigenvalues --    0.26926   0.27728   0.28338   0.29074   0.29408
 Alpha virt. eigenvalues --    0.29550   0.30514   0.31203   0.31599   0.32340
 Alpha virt. eigenvalues --    0.32885   0.33653   0.34749   0.35036   0.35354
 Alpha virt. eigenvalues --    0.35838   0.36486   0.36835   0.38008   0.38861
 Alpha virt. eigenvalues --    0.40480   0.42592   0.42884   0.43098   0.43414
 Alpha virt. eigenvalues --    0.43769   0.44046   0.44341   0.44511   0.44732
 Alpha virt. eigenvalues --    0.44849   0.45389   0.45514   0.46267   0.46662
 Alpha virt. eigenvalues --    0.46994   0.47673   0.48040   0.48392   0.48502
 Alpha virt. eigenvalues --    0.48801   0.49631   0.50273   0.51015   0.51294
 Alpha virt. eigenvalues --    0.51982   0.52742   0.54059   0.56171   0.57606
 Alpha virt. eigenvalues --    0.60449   0.64146   0.68600   0.72724   0.75211
 Alpha virt. eigenvalues --    0.76187   2.05061   2.07427   2.09492   2.12153
 Alpha virt. eigenvalues --    2.15141   2.18430   2.22081   4.40985   4.41874
 Alpha virt. eigenvalues --    4.42275   4.43048   4.43175   4.43884   4.44013
 Alpha virt. eigenvalues --    4.44453   4.44961   4.45536   4.46506   4.46718
 Alpha virt. eigenvalues --    4.47182   4.47866   4.48763   4.54119   4.55472
 Alpha virt. eigenvalues --    4.64079   4.65209   4.67928   4.70125  96.24994
 Alpha virt. eigenvalues --   96.27897  96.30475  96.34245  96.38199  96.42318
 Alpha virt. eigenvalues --   96.46688
  Beta  occ. eigenvalues --  -38.45022 -38.45005 -38.44223 -38.44112 -38.44109
  Beta  occ. eigenvalues --  -38.43308 -38.43288  -2.20892  -2.20796  -2.19994
  Beta  occ. eigenvalues --   -2.19946  -2.19906  -2.19171  -2.19142  -1.14631
  Beta  occ. eigenvalues --   -1.14611  -1.14526  -1.14461  -1.14457  -1.14383
  Beta  occ. eigenvalues --   -1.13726  -1.13671  -1.13668  -1.13647  -1.13640
  Beta  occ. eigenvalues --   -1.13609  -1.13587  -1.13580  -1.13575  -1.12834
  Beta  occ. eigenvalues --   -1.12817  -1.12812  -1.12797  -1.12788  -1.12765
  Beta  occ. eigenvalues --   -0.15882  -0.14414  -0.11516
  Beta virt. eigenvalues --   -0.07673  -0.06290  -0.04635  -0.04149  -0.03409
  Beta virt. eigenvalues --   -0.02745  -0.02435  -0.01633  -0.01427  -0.00830
  Beta virt. eigenvalues --   -0.00414   0.00048   0.00226   0.00432   0.00610
  Beta virt. eigenvalues --    0.00668   0.00775   0.00834   0.01071   0.01077
  Beta virt. eigenvalues --    0.01286   0.01475   0.01598   0.01672   0.01801
  Beta virt. eigenvalues --    0.01890   0.02042   0.02137   0.02304   0.02364
  Beta virt. eigenvalues --    0.02513   0.02630   0.02715   0.02748   0.02858
  Beta virt. eigenvalues --    0.02943   0.02985   0.03190   0.03317   0.03392
  Beta virt. eigenvalues --    0.03452   0.03664   0.03814   0.03919   0.04311
  Beta virt. eigenvalues --    0.04420   0.04683   0.05002   0.05154   0.05261
  Beta virt. eigenvalues --    0.05853   0.06131   0.06335   0.06458   0.07195
  Beta virt. eigenvalues --    0.07491   0.07641   0.07829   0.07854   0.08144
  Beta virt. eigenvalues --    0.08761   0.08913   0.09043   0.09373   0.09570
  Beta virt. eigenvalues --    0.09920   0.10185   0.10454   0.11092   0.11537
  Beta virt. eigenvalues --    0.11899   0.12264   0.12610   0.13194   0.14077
  Beta virt. eigenvalues --    0.14666   0.14955   0.15391   0.15600   0.16479
  Beta virt. eigenvalues --    0.17484   0.27234   0.27984   0.28629   0.29400
  Beta virt. eigenvalues --    0.29692   0.29844   0.30819   0.31406   0.31831
  Beta virt. eigenvalues --    0.32607   0.32975   0.34026   0.35081   0.35372
  Beta virt. eigenvalues --    0.35790   0.36282   0.36820   0.37277   0.38452
  Beta virt. eigenvalues --    0.39085   0.40686   0.42738   0.43109   0.43250
  Beta virt. eigenvalues --    0.43448   0.43910   0.44059   0.44509   0.44600
  Beta virt. eigenvalues --    0.44843   0.45022   0.45606   0.45646   0.46270
  Beta virt. eigenvalues --    0.46797   0.47146   0.47885   0.48143   0.48499
  Beta virt. eigenvalues --    0.48696   0.48966   0.49781   0.50390   0.51179
  Beta virt. eigenvalues --    0.51477   0.52104   0.52885   0.54296   0.56238
  Beta virt. eigenvalues --    0.57813   0.60686   0.64310   0.68713   0.72876
  Beta virt. eigenvalues --    0.75331   0.76290   2.05184   2.07588   2.09663
  Beta virt. eigenvalues --    2.12379   2.15129   2.18513   2.22182   4.41024
  Beta virt. eigenvalues --    4.41935   4.42314   4.43097   4.43213   4.43946
  Beta virt. eigenvalues --    4.44063   4.44499   4.45035   4.45619   4.46537
  Beta virt. eigenvalues --    4.46760   4.47185   4.47907   4.48839   4.54136
  Beta virt. eigenvalues --    4.55517   4.64110   4.65263   4.67967   4.70168
  Beta virt. eigenvalues --   96.25036  96.27949  96.30532  96.34318  96.38202
  Beta virt. eigenvalues --   96.42344  96.46722
          Condensed to atoms (all electrons):
               1          2          3          4          5          6
     1  Na  11.164922  -0.022063   0.153132  -0.313280  -0.247326   0.087716
     2  Na  -0.022063  10.733523  -0.027776   0.141114   0.282249  -0.107573
     3  Na   0.153132  -0.027776  10.942690   0.009871  -0.437301   0.088169
     4  Na  -0.313280   0.141114   0.009871  10.889346   0.417053  -0.141614
     5  Na  -0.247326   0.282249  -0.437301   0.417053  12.746650  -0.549222
     6  Na   0.087716  -0.107573   0.088169  -0.141614  -0.549222  10.773671
     7  Na  -0.004847   0.012192  -0.017679  -0.052744   0.102489   0.160805
               7
     1  Na  -0.004847
     2  Na   0.012192
     3  Na  -0.017679
     4  Na  -0.052744
     5  Na   0.102489
     6  Na   0.160805
     7  Na  10.682469
          Atomic-Atomic Spin Densities.
               1          2          3          4          5          6
     1  Na   0.464812  -0.067390  -0.068113  -0.042138   0.018942   0.009684
     2  Na  -0.067390  -0.077180   0.034562   0.011815  -0.017635   0.009955
     3  Na  -0.068113   0.034562   0.410340   0.091339  -0.075022  -0.006742
     4  Na  -0.042138   0.011815   0.091339  -0.059166   0.032099  -0.042077
     5  Na   0.018942  -0.017635  -0.075022   0.032099   0.441025  -0.122305
     6  Na   0.009684   0.009955  -0.006742  -0.042077  -0.122305   0.049040
     7  Na  -0.010773   0.003307  -0.004612  -0.012488  -0.032750   0.053434
               7
     1  Na  -0.010773
     2  Na   0.003307
     3  Na  -0.004612
     4  Na  -0.012488
     5  Na  -0.032750
     6  Na   0.053434
     7  Na   0.244944
 Mulliken charges and spin densities:
               1          2
     1  Na   0.181745   0.305024
     2  Na  -0.011665  -0.102566
     3  Na   0.288895   0.381753
     4  Na   0.050254  -0.020616
     5  Na  -1.314592   0.244354
     6  Na   0.688048  -0.049011
     7  Na   0.117315   0.241062
 Sum of Mulliken charges =  -0.00000   1.00000
 Mulliken charges and spin densities with hydrogens summed into heavy atoms:
               1          2
     1  Na   0.181745   0.305024
     2  Na  -0.011665  -0.102566
     3  Na   0.288895   0.381753
     4  Na   0.050254  -0.020616
     5  Na  -1.314592   0.244354
     6  Na   0.688048  -0.049011
     7  Na   0.117315   0.241062
 Electronic spatial extent (au):  <R**2>=           4561.4963
 Charge=              0.0000 electrons
 Dipole moment (field-independent basis, Debye):
    X=              2.1549    Y=             -0.1059    Z=              0.0415  Tot=              2.1579
 Quadrupole moment (field-independent basis, Debye-Ang):
   XX=            -62.1650   YY=            -73.1822   ZZ=            -64.4308
   XY=             -2.8278   XZ=             -4.9000   YZ=              2.0126
 Traceless Quadrupole moment (field-independent basis, Debye-Ang):
   XX=              4.4277   YY=             -6.5896   ZZ=              2.1619
   XY=             -2.8278   XZ=             -4.9000   YZ=              2.0126
 Octapole moment (field-independent basis, Debye-Ang**2):
  XXX=             74.5726  YYY=             -3.1087  ZZZ=              8.4295  XYY=              5.3400
  XXY=             17.3934  XXZ=            -19.3441  XZZ=             17.4201  YZZ=              4.1562
  YYZ=             -6.7798  XYZ=             -4.6224
 Hexadecapole moment (field-independent basis, Debye-Ang**3):
 XXXX=          -5213.6812 YYYY=          -1267.7271 ZZZZ=           -538.8907 XXXY=            -78.3945
 XXXZ=           -381.2152 YYYX=            -16.9794 YYYZ=             20.9619 ZZZX=             19.9506
 ZZZY=             -0.3750 XXYY=          -1270.6356 XXZZ=          -1013.3720 YYZZ=           -286.2848
 XXYZ=             29.0194 YYXZ=             -2.2236 ZZXY=            -10.7373
 N-N= 2.787380624971D+02 E-N=-3.286636890839D+03  KE= 1.132971420415D+03
                          Isotropic Fermi Contact Couplings
        Atom                 a.u.       MegaHertz       Gauss      10(-4) cm-1
     1  Na(23)             0.25816     305.40739     108.97695     101.87294
     2  Na(23)            -0.08057     -95.31669     -34.01137     -31.79423
     3  Na(23)             0.34846     412.23884     147.09707     137.50807
     4  Na(23)            -0.10357    -122.52097     -43.71853     -40.86860
     5  Na(23)             0.21350     252.57204      90.12399      84.24897
     6  Na(23)            -0.06676     -78.97597     -28.18059     -26.34355
     7  Na(23)             0.20502     242.54819      86.54723      80.90537
 --------------------------------------------------------
       Center         ----  Spin Dipole Couplings  ----
                      3XX-RR        3YY-RR        3ZZ-RR
 --------------------------------------------------------
     1   Atom        0.002410     -0.001687     -0.000723
     2   Atom       -0.016170      0.031146     -0.014976
     3   Atom       -0.003130      0.002083      0.001048
     4   Atom        0.013977     -0.000200     -0.013777
     5   Atom       -0.003325      0.001364      0.001961
     6   Atom        0.036892     -0.018564     -0.018328
     7   Atom       -0.004272      0.001258      0.003014
 --------------------------------------------------------
                        XY            XZ            YZ
 --------------------------------------------------------
     1   Atom        0.003866      0.002722     -0.002746
     2   Atom       -0.005167     -0.002419      0.013438
     3   Atom       -0.002861      0.005890     -0.001744
     4   Atom       -0.026596     -0.014464      0.009645
     5   Atom        0.011614     -0.009361      0.004259
     6   Atom        0.004861      0.000530     -0.000451
     7   Atom       -0.000362      0.004331      0.000811
 --------------------------------------------------------


 ---------------------------------------------------------------------------------
              Anisotropic Spin Dipole Couplings in Principal Axis System
 ---------------------------------------------------------------------------------

       Atom             a.u.   MegaHertz   Gauss  10(-4) cm-1        Axes

              Baa    -0.0065    -0.917    -0.327    -0.306 -0.4685  0.6913  0.5501
     1 Na(23) Bbb     0.0016     0.219     0.078     0.073  0.0821 -0.5859  0.8062
              Bcc     0.0049     0.698     0.249     0.233  0.8797  0.4229  0.2177
 
              Baa    -0.0190    -2.688    -0.959    -0.897  0.3976 -0.1989  0.8957
     2 Na(23) Bbb    -0.0164    -2.309    -0.824    -0.770  0.9111  0.2009 -0.3598
              Bcc     0.0354     4.997     1.783     1.667 -0.1084  0.9592  0.2611
 
              Baa    -0.0075    -1.058    -0.377    -0.353  0.8279  0.1490 -0.5407
     3 Na(23) Bbb     0.0004     0.051     0.018     0.017  0.1872  0.8354  0.5169
              Bcc     0.0071     1.007     0.359     0.336  0.5286 -0.5292  0.6637
 
              Baa    -0.0213    -3.005    -1.072    -1.002  0.6453  0.5949  0.4792
     4 Na(23) Bbb    -0.0187    -2.645    -0.944    -0.882 -0.0930 -0.5615  0.8222
              Bcc     0.0400     5.650     2.016     1.885  0.7582 -0.5752 -0.3070
 
              Baa    -0.0179    -2.524    -0.901    -0.842  0.7158 -0.5322  0.4521
     5 Na(23) Bbb     0.0059     0.828     0.295     0.276 -0.0628  0.5957  0.8007
              Bcc     0.0120     1.696     0.605     0.566  0.6955  0.6015 -0.3930
 
              Baa    -0.0193    -2.719    -0.970    -0.907 -0.0804  0.8771  0.4735
     6 Na(23) Bbb    -0.0181    -2.551    -0.910    -0.851  0.0333 -0.4724  0.8808
              Bcc     0.0373     5.270     1.880     1.758  0.9962  0.0866  0.0088
 
              Baa    -0.0063    -0.896    -0.320    -0.299  0.9011  0.0882 -0.4246
     7 Na(23) Bbb     0.0012     0.173     0.062     0.058 -0.1433  0.9847 -0.0996
              Bcc     0.0051     0.723     0.258     0.241  0.4093  0.1506  0.8999
 

 ---------------------------------------------------------------------------------

 No NMR shielding tensors so no spin-rotation constants.
 Leave Link  601 at Tue Nov 21 11:50:18 2023, MaxMem=   104857600 cpu:              16.6 elap:               6.3
 (Enter /home/sekinelabo/g16/l701.exe)
 ... and contract with generalized density number  0.
 Compute integral first derivatives.
 Leave Link  701 at Tue Nov 21 11:50:21 2023, MaxMem=   104857600 cpu:               7.5 elap:               2.9
 (Enter /home/sekinelabo/g16/l702.exe)
 L702 exits ... SP integral derivatives will be done elsewhere.
 Leave Link  702 at Tue Nov 21 11:50:21 2023, MaxMem=   104857600 cpu:               0.6 elap:               0.3
 (Enter /home/sekinelabo/g16/l703.exe)
 Integral derivatives from FoFJK, PRISM(SPDF).
 Compute integral first derivatives, UseDBF=F ICtDFT=           0.
 Calling FoFJK, ICntrl=      2127 FMM=F ISym2X=0 I1Cent= 0 IOpClX= 1 NMat=1 NMatS=1 NMatT=0.
 FoFJK:  IHMeth= 1 ICntrl=    2127 DoSepK=F KAlg= 0 I1Cent=           0 FoldK=F
 IRaf=         0 NMat=       1 IRICut=       1 DoRegI=T DoRafI=F ISym2E= 0 IDoP0=0 IntGTp=1.
 FoFCou: FMM=F IPFlag=           0 FMFlag=      100000 FMFlg1=         800
         NFxFlg=           0 DoJE=F BraDBF=F KetDBF=F FulRan=T
         wScrn=  0.000000 ICntrl=      2127 IOpCl=  1 I1Cent=           0 NGrid=           0
         NMat0=    1 NMatS0=      1 NMatT0=    0 NMatD0=    1 NMtDS0=    0 NMtDT0=    0
 Symmetry not used in FoFCou.
 Leave Link  703 at Tue Nov 21 11:50:34 2023, MaxMem=   104857600 cpu:              38.0 elap:              12.1
 (Enter /home/sekinelabo/g16/l716.exe)
 Dipole        = 8.47786929D-01-4.16584399D-02 1.63091015D-02
 ***** Axes restored to original set *****
 -------------------------------------------------------------------
 Center     Atomic                   Forces (Hartrees/Bohr)
 Number     Number              X              Y              Z
 -------------------------------------------------------------------
      1       11          -0.003371695   -0.001322624    0.001652068
      2       11           0.004257157    0.000888182   -0.002468854
      3       11           0.001188917   -0.000061913   -0.002091298
      4       11          -0.002656976    0.000827221    0.002584429
      5       11           0.006224561    0.000052858    0.004765301
      6       11          -0.004296963   -0.000033131   -0.006057058
      7       11          -0.001345001   -0.000350593    0.001615413
 -------------------------------------------------------------------
 Cartesian Forces:  Max     0.006224561 RMS     0.002945690
 Z-matrix is all fixed cartesians, so copy forces.
 Force constants in Cartesian coordinates: 
                1             2             3             4             5 
      1  0.171228D-01
      2  0.967505D-02  0.181203D-01
      3 -0.132058D-01 -0.126444D-01  0.124168D-01
      4 -0.203484D-01 -0.621261D-02  0.135064D-01  0.362390D-01
      5 -0.120544D-01 -0.155664D-01  0.128658D-01  0.656555D-03  0.303739D-01
      6  0.159100D-01  0.970594D-02 -0.127066D-01 -0.209427D-01 -0.135712D-01
      7  0.324799D-02 -0.344547D-02 -0.259177D-03 -0.147610D-01  0.122234D-01
      8  0.239617D-02 -0.254108D-02 -0.190373D-03  0.254582D-02 -0.170115D-01
      9 -0.268274D-02  0.295464D-02  0.329297D-03  0.847859D-02  0.146717D-02
     10 -0.224195D-04 -0.169724D-04 -0.413769D-04 -0.110344D-02 -0.805952D-03
     11 -0.168282D-04 -0.127396D-04 -0.310578D-04  0.298486D-02  0.218505D-02
     12 -0.214150D-04 -0.162120D-04 -0.395230D-04 -0.101771D-02 -0.743288D-03
     13  0.000000D+00  0.000000D+00  0.000000D+00 -0.261861D-04 -0.196555D-04
     14  0.000000D+00  0.000000D+00  0.000000D+00  0.253703D-04  0.190432D-04
     15  0.000000D+00  0.000000D+00  0.000000D+00 -0.245843D-04 -0.184531D-04
     16  0.000000D+00  0.000000D+00  0.000000D+00  0.000000D+00  0.000000D+00
     17  0.000000D+00  0.000000D+00  0.000000D+00  0.000000D+00  0.000000D+00
     18  0.000000D+00  0.000000D+00  0.000000D+00  0.000000D+00  0.000000D+00
     19  0.000000D+00  0.000000D+00  0.000000D+00  0.000000D+00  0.000000D+00
     20  0.000000D+00  0.000000D+00  0.000000D+00  0.000000D+00  0.000000D+00
     21  0.000000D+00  0.000000D+00  0.000000D+00  0.000000D+00  0.000000D+00
                6             7             8             9            10 
      6  0.190458D-01
      7  0.302489D-02  0.290961D-01
      8  0.866008D-02 -0.538861D-02  0.326713D-01
      9 -0.819713D-02 -0.189674D-01 -0.909859D-02  0.300425D-01
     10  0.203281D-02 -0.161965D-01  0.332791D-02  0.145135D-01  0.296531D-01
     11 -0.481902D-02 -0.413970D-02 -0.147234D-01  0.395015D-02  0.736755D-02
     12  0.188134D-02  0.137775D-01 -0.412298D-02 -0.245182D-01 -0.127846D-01
     13 -0.250128D-04 -0.135462D-02 -0.291220D-02 -0.131196D-02 -0.118461D-01
     14  0.242336D-04  0.731285D-03  0.162319D-02  0.708744D-03 -0.602360D-02
     15 -0.234828D-04  0.237962D-02  0.479503D-02  0.230164D-02 -0.466018D-02
     16  0.000000D+00 -0.318928D-04  0.308993D-04 -0.299419D-04 -0.489997D-03
     17  0.000000D+00  0.190426D-04 -0.184494D-04  0.178777D-04 -0.363122D-02
     18  0.000000D+00  0.445559D-04 -0.431679D-04  0.418304D-04  0.933758D-03
     19  0.000000D+00  0.000000D+00  0.000000D+00  0.000000D+00  0.537405D-05
     20  0.000000D+00  0.000000D+00  0.000000D+00  0.000000D+00 -0.217715D-03
     21  0.000000D+00  0.000000D+00  0.000000D+00  0.000000D+00  0.611575D-05
               11            12            13            14            15 
     11  0.315531D-01
     12  0.732304D-02  0.326811D-01
     13 -0.672865D-02  0.898538D-03  0.433297D-01
     14 -0.228411D-01  0.186473D-02  0.819931D-02  0.323274D-01
     15 -0.541477D-02 -0.115013D-01  0.163693D-01 -0.489951D-02  0.305332D-01
     16  0.535976D-03 -0.844828D-03 -0.268019D-01 -0.298787D-02 -0.187974D-01
     17  0.370915D-02 -0.460945D-02  0.126416D-02 -0.109630D-01  0.580994D-02
     18 -0.100469D-02  0.150506D-02 -0.128333D-01  0.224893D-02 -0.257515D-01
     19 -0.320874D-05 -0.750784D-05 -0.330094D-02  0.554949D-04  0.473323D-02
     20  0.129993D-03  0.304159D-03  0.197036D-03 -0.165452D-03 -0.272234D-03
     21 -0.365159D-05 -0.854402D-05 -0.309751D-02  0.528750D-04  0.444149D-02
               16            17            18            19            20 
     16  0.449505D-01
     17  0.251138D-02  0.758945D-02
     18  0.245017D-02 -0.889105D-03  0.513657D-01
     19 -0.176267D-01 -0.163352D-03  0.940483D-02  0.209223D-01
     20 -0.903877D-04 -0.317126D-03 -0.311968D-03  0.111066D-03  0.352585D-03
     21  0.172220D-01 -0.329266D-03 -0.271610D-01 -0.141306D-01  0.280042D-03
               21 
     21  0.227281D-01
 Leave Link  716 at Tue Nov 21 11:50:34 2023, MaxMem=   104857600 cpu:               0.9 elap:               0.3
 (Enter /home/sekinelabo/g16/l103.exe)

 GradGradGradGradGradGradGradGradGradGradGradGradGradGradGradGradGradGrad
 Berny optimization.
 Search for a local minimum.
 Step number   1 out of a maximum of    2
 All quantities printed in internal units (Hartrees-Bohrs-Radians)
 Second derivative matrix not updated -- first step.
 ITU=  0
     Eigenvalues ---    0.00005   0.00012   0.00029   0.00124   0.00610
     Eigenvalues ---    0.00806   0.02339   0.02858   0.04026   0.04720
     Eigenvalues ---    0.06241   0.07933   0.08296   0.09462   0.09850
 Eigenvalue     1 is   4.72D-05 Eigenvector:
                          X1        X6        Y6        Y4        Z1
   1                    0.59407  -0.34544   0.33512  -0.30152   0.29186
                          Z5        X2        X5        X7        Z7
   1                   -0.25447   0.19512  -0.18956  -0.14901   0.12610
 Quadratic step=8.621D+00 exceeds max=3.000D-01 adjusted using Lamda=-4.260D-03.
 Angle between NR and scaled steps=  44.72 degrees.
 Angle between quadratic step and forces=  52.96 degrees.
 Linear search not attempted -- first point.
 B after Tr=     0.000000    0.000000   -0.000000
         Rot=    1.000000   -0.000000    0.000000   -0.000000 Ang=   0.00 deg.
 Variable       Old X    -DE/DX   Delta X   Delta X   Delta X     New X
                                 (Linear)    (Quad)   (Total)
    X1       17.62633  -0.00337   0.00000  -0.16079  -0.16079  17.46554
    Y1        0.57810  -0.00132   0.00000  -0.01178  -0.01178   0.56632
    Z1        3.37148   0.00165   0.00000  -0.07004  -0.07004   3.30144
    X2       20.88393   0.00426   0.00000   0.08361   0.08361  20.96754
    Y2        3.88377   0.00089   0.00000  -0.02543  -0.02543   3.85833
    Z2        0.25044  -0.00247   0.00000   0.01655   0.01655   0.26699
    X3       17.13934   0.00119   0.00000   0.07217   0.07217  17.21152
    Y3        8.91879  -0.00006   0.00000   0.01624   0.01624   8.93503
    Z3        0.21407  -0.00209   0.00000  -0.04533  -0.04533   0.16874
    X4       13.18265  -0.00266   0.00000   0.01021   0.01021  13.19287
    Y4        8.87907   0.00083   0.00000   0.09610   0.09610   8.97516
    Z4        4.38757   0.00258   0.00000   0.02562   0.02562   4.41319
    X5        9.30059   0.00622   0.00000   0.08070   0.08070   9.38129
    Y5        4.14154   0.00005   0.00000   0.04459   0.04459   4.18614
    Z5        3.63357   0.00477   0.00000   0.10727   0.10727   3.74084
    X6        4.75172  -0.00430   0.00000  -0.01965  -0.01965   4.73207
    Y6        3.94021  -0.00003   0.00000  -0.04077  -0.04077   3.89944
    Z6        0.46356  -0.00606   0.00000  -0.03173  -0.03173   0.43183
    X7        0.84725  -0.00135   0.00000  -0.06626  -0.06626   0.78098
    Y7        3.96075  -0.00035   0.00000  -0.07895  -0.07895   3.88180
    Z7        4.62577   0.00162   0.00000  -0.00234  -0.00234   4.62343
         Item               Value     Threshold  Converged?
 Maximum Force            0.006225     0.000450     NO 
 RMS     Force            0.002946     0.000300     NO 
 Maximum Displacement     0.160790     0.001800     NO 
 RMS     Displacement     0.065475     0.001200     NO 
 Predicted change in Energy=-1.412428D-03
 GradGradGradGradGradGradGradGradGradGradGradGradGradGradGradGradGradGrad

 Leave Link  103 at Tue Nov 21 11:50:35 2023, MaxMem=   104857600 cpu:               3.1 elap:               0.7
 (Enter /home/sekinelabo/g16/l9999.exe)
 1\1\GINC-SEKINELABO-XA7R-R37\Force\UB3LYP\6-311+G(d)\Na7(2)\SEKINELABO
 \21-Nov-2023\0\\#P B3LYP/6-311+g(d) force\\DPGEN\\0,2\Na,9.32745,0.305
 917,1.78411\Na,11.0513,2.0552,0.132527\Na,9.06975,4.71962,0.11328\Na,6
 .97596,4.6986,2.3218\Na,4.92166,2.19161,1.9228\Na,2.5145,2.08507,0.245
 307\Na,0.448343,2.09594,2.44785\\Version=ES64L-G16RevB.01\State=2-A\HF
 =-1136.1038232\S2=0.796061\S2-1=0.\S2A=0.750998\RMSD=7.228e-09\RMSF=2.
 946e-03\Dipole=-0.8405263,-0.0796239,0.0889929\Quadrupole=2.2017367,-4
 .9197217,2.7179851,2.0155172,-3.7993721,-1.3874738\PG=C01 [X(Na7)]\\@


 HE WHO LAUGHS LAST PROBABLY DIDN'T GET THE JOKE.
 Job cpu time:       0 days  0 hours 12 minutes 51.8 seconds.
 Elapsed time:       0 days  0 hours 10 minutes 16.9 seconds.
 File lengths (MBytes):  RWF=     46 Int=      0 D2E=      0 Chk=      4 Scr=      1
 Normal termination of Gaussian 16 at Tue Nov 21 11:50:35 2023.
