
         7 atoms    
         0 bonds    
        0 angles   

         1 atom types    
         0 bond types    
         0 angle types   

       -5.000000000000000        25.282000000000000 xlo xhi
       -5.000000000000000        25.387400000000000 ylo yhi
       -5.355300000000000        25.220900000000000 zlo zhi
        0.000000000000000         0.000000000000000         0.000000000000000 xy xz yz

Masses

    1        22.989999999999998 # Na   



Atoms

       1     1             3.300000000000000         0.000000000000000         0.000000000000000
       2     1              3.300000000000000         3.300000000000000         0.000000000000000
       3     1              0.000000000000000         0.000000000000000         0.000000000000000
       4     1              0.000000000000000         3.300000000000000         0.000000000000000
       5     1             3.300000000000000         0.000000000000000         3.300000000000000
       6     1              3.300000000000000         3.300000000000000         3.300000000000000
       7     1             0.000000000000000         0.000000000000000         3.300000000000000


