ITEM: TIMESTEP
0
ITEM: NUMBER OF ATOMS
7
ITEM: BOX BOUNDS xy xz yz pp pp pp
-5.0000000000000000e+00 2.5282000000000000e+01 0.0000000000000000e+00
-5.0000000000000000e+00 2.5387400000000000e+01 0.0000000000000000e+00
-5.3552999999999997e+00 2.5220900000000000e+01 0.0000000000000000e+00
ITEM: ATOMS id type xs ys zs ix iy iz
1 1 0.27409 0.164542 0.175146 0 0 0
2 1 0.27409 0.27314 0.175146 0 0 0
3 1 0.165115 0.164542 0.175146 0 0 0
4 1 0.165115 0.27314 0.175146 0 0 0
5 1 0.27409 0.164542 0.283073 0 0 0
6 1 0.27409 0.27314 0.283073 0 0 0
7 1 0.165115 0.164542 0.283073 0 0 0
ITEM: TIMESTEP
2
ITEM: NUMBER OF ATOMS
7
ITEM: BOX BOUNDS xy xz yz pp pp pp
-5.0000000000000000e+00 2.5282000000000000e+01 0.0000000000000000e+00
-5.0000000000000000e+00 2.5387400000000000e+01 0.0000000000000000e+00
-5.3552999999999997e+00 2.5220900000000000e+01 0.0000000000000000e+00
ITEM: ATOMS id type xs ys zs ix iy iz
1 1 0.271315 0.167307 0.177894 0 0 0
2 1 0.269977 0.266558 0.17922 0 0 0
3 1 0.171719 0.168641 0.17922 0 0 0
4 1 0.167339 0.270922 0.175198 0 0 0
5 1 0.269977 0.168641 0.276532 0 0 0
6 1 0.274037 0.270922 0.28087 0 0 0
7 1 0.167339 0.164595 0.28087 0 0 0
