 Entering Gaussian System, Link 0=g16
 Initial command:
 /home/sekinelabo/g16/l1.exe "/home/sekinelabo/g16temp/Gau-1046493.inp" -scrdir="/home/sekinelabo/g16temp/"
 Entering Link 1 = /home/sekinelabo/g16/l1.exe PID=   1046529.
  
 Copyright (c) 1988-2017, Gaussian, Inc.  All Rights Reserved.
  
 This is part of the Gaussian(R) 16 program.  It is based on
 the Gaussian(R) 09 system (copyright 2009, Gaussian, Inc.),
 the Gaussian(R) 03 system (copyright 2003, Gaussian, Inc.),
 the Gaussian(R) 98 system (copyright 1998, Gaussian, Inc.),
 the Gaussian(R) 94 system (copyright 1995, Gaussian, Inc.),
 the Gaussian 92(TM) system (copyright 1992, Gaussian, Inc.),
 the Gaussian 90(TM) system (copyright 1990, Gaussian, Inc.),
 the Gaussian 88(TM) system (copyright 1988, Gaussian, Inc.),
 the Gaussian 86(TM) system (copyright 1986, Carnegie Mellon
 University), and the Gaussian 82(TM) system (copyright 1983,
 Carnegie Mellon University). Gaussian is a federally registered
 trademark of Gaussian, Inc.
  
 This software contains proprietary and confidential information,
 including trade secrets, belonging to Gaussian, Inc.
  
 This software is provided under written license and may be
 used, copied, transmitted, or stored only in accord with that
 written license.
  
 The following legend is applicable only to US Government
 contracts under FAR:
  
                    RESTRICTED RIGHTS LEGEND
  
 Use, reproduction and disclosure by the US Government is
 subject to restrictions as set forth in subparagraphs (a)
 and (c) of the Commercial Computer Software - Restricted
 Rights clause in FAR 52.227-19.
  
 Gaussian, Inc.
 340 Quinnipiac St., Bldg. 40, Wallingford CT 06492
  
  
 ---------------------------------------------------------------
 Warning -- This program may not be used in any manner that
 competes with the business of Gaussian, Inc. or will provide
 assistance to any competitor of Gaussian, Inc.  The licensee
 of this program is prohibited from giving any competitor of
 Gaussian, Inc. access to this program.  By using this program,
 the user acknowledges that Gaussian, Inc. is engaged in the
 business of creating and licensing software in the field of
 computational chemistry and represents and warrants to the
 licensee that it is not a competitor of Gaussian, Inc. and that
 it will not use this program in any manner prohibited above.
 ---------------------------------------------------------------
  

 Cite this work as:
 Gaussian 16, Revision B.01,
 M. J. Frisch, G. W. Trucks, H. B. Schlegel, G. E. Scuseria, 
 M. A. Robb, J. R. Cheeseman, G. Scalmani, V. Barone, 
 G. A. Petersson, H. Nakatsuji, X. Li, M. Caricato, A. V. Marenich, 
 J. Bloino, B. G. Janesko, R. Gomperts, B. Mennucci, H. P. Hratchian, 
 J. V. Ortiz, A. F. Izmaylov, J. L. Sonnenberg, D. Williams-Young, 
 F. Ding, F. Lipparini, F. Egidi, J. Goings, B. Peng, A. Petrone, 
 T. Henderson, D. Ranasinghe, V. G. Zakrzewski, J. Gao, N. Rega, 
 G. Zheng, W. Liang, M. Hada, M. Ehara, K. Toyota, R. Fukuda, 
 J. Hasegawa, M. Ishida, T. Nakajima, Y. Honda, O. Kitao, H. Nakai, 
 T. Vreven, K. Throssell, J. A. Montgomery, Jr., J. E. Peralta, 
 F. Ogliaro, M. J. Bearpark, J. J. Heyd, E. N. Brothers, K. N. Kudin, 
 V. N. Staroverov, T. A. Keith, R. Kobayashi, J. Normand, 
 K. Raghavachari, A. P. Rendell, J. C. Burant, S. S. Iyengar, 
 J. Tomasi, M. Cossi, J. M. Millam, M. Klene, C. Adamo, R. Cammi, 
 J. W. Ochterski, R. L. Martin, K. Morokuma, O. Farkas, 
 J. B. Foresman, and D. J. Fox, Gaussian, Inc., Wallingford CT, 2016.
 
 ******************************************
 Gaussian 16:  ES64L-G16RevB.01 20-Dec-2017
                23-Nov-2023 
 ******************************************
 %nprocshared=14
 Will use up to   14 processors via shared memory.
 -------------------------
 #P B3LYP/6-311+g(d) force
 -------------------------
 1/10=7,30=1,38=1/1,3;
 2/12=2,17=6,18=5,40=1/2;
 3/5=4,6=6,7=11,11=2,25=1,30=1,71=1,74=-5/1,2,3;
 4//1;
 5/5=2,38=5/2;
 6/7=2,8=2,9=2,10=2,28=1/1;
 7/29=1/1,2,3,16;
 1/10=7,30=1/3;
 99//99;
 Leave Link    1 at Thu Nov 23 12:30:20 2023, MaxMem=           0 cpu:               0.4 elap:               0.6
 (Enter /home/sekinelabo/g16/l101.exe)
 -----
 DPGEN
 -----
 Symbolic Z-matrix:
 Charge =  0 Multiplicity = 2
 Na                    11.289    1.28985   99.0647 
 Na                    9.88211   3.30193   1.00727 
 Na                    9.66777   0.90355   3.24031 
 Na                    5.65822   1.42445   5.01194 
 Na                    3.4509    2.2884    3.51869 
 Na                    2.61992   3.37717   99.5072 
 Na                    1.74112   5.56662   97.6175 
 
 ITRead=  0  0  0  0  0  0  0
 MicOpt= -1 -1 -1 -1 -1 -1 -1
 NAtoms=      7 NQM=        7 NQMF=       0 NMMI=      0 NMMIF=      0
                NMic=       0 NMicF=      0.
                    Isotopes and Nuclear Properties:
 (Nuclear quadrupole moments (NQMom) in fm**2, nuclear magnetic moments (NMagM)
  in nuclear magnetons)

  Atom         1           2           3           4           5           6           7
 IAtWgt=          23          23          23          23          23          23          23
 AtmWgt=  22.9897697  22.9897697  22.9897697  22.9897697  22.9897697  22.9897697  22.9897697
 NucSpn=           3           3           3           3           3           3           3
 AtZEff=  -0.0000000  -0.0000000  -0.0000000  -0.0000000  -0.0000000  -0.0000000  -0.0000000
 NQMom=   10.4000000  10.4000000  10.4000000  10.4000000  10.4000000  10.4000000  10.4000000
 NMagM=    2.2175200   2.2175200   2.2175200   2.2175200   2.2175200   2.2175200   2.2175200
 AtZNuc=  11.0000000  11.0000000  11.0000000  11.0000000  11.0000000  11.0000000  11.0000000
 Leave Link  101 at Thu Nov 23 12:30:23 2023, MaxMem=   104857600 cpu:               2.6 elap:               2.9
 (Enter /home/sekinelabo/g16/l103.exe)

 GradGradGradGradGradGradGradGradGradGradGradGradGradGradGradGradGradGrad
 Berny optimization.
 Initialization pass.
 Trust Radius=3.00D-01 FncErr=1.00D-07 GrdErr=1.00D-07 EigMax=2.50D+02 EigMin=1.00D-04
 Number of steps in this run=      2 maximum allowed number of steps=      2.
 GradGradGradGradGradGradGradGradGradGradGradGradGradGradGradGradGradGrad

 Leave Link  103 at Thu Nov 23 12:30:24 2023, MaxMem=   104857600 cpu:               0.5 elap:               0.6
 (Enter /home/sekinelabo/g16/l202.exe)
                          Input orientation:                          
 ---------------------------------------------------------------------
 Center     Atomic      Atomic             Coordinates (Angstroms)
 Number     Number       Type             X           Y           Z
 ---------------------------------------------------------------------
      1         11           0       11.289000    1.289850   99.064700
      2         11           0        9.882110    3.301930    1.007270
      3         11           0        9.667770    0.903553    3.240310
      4         11           0        5.658220    1.424450    5.011940
      5         11           0        3.450900    2.288400    3.518690
      6         11           0        2.619920    3.377170   99.507200
      7         11           0        1.741120    5.566620   97.617500
 ---------------------------------------------------------------------
                    Distance matrix (angstroms):
                    1          2          3          4          5
     1  Na   0.000000
     2  Na  98.088161   0.000000
     3  Na  95.838882   3.283995   0.000000
     4  Na  94.221258   6.115845   4.414351   0.000000
     5  Na  95.872170   6.978176   6.375325   2.801512   0.000000
     6  Na   8.927803  98.767309  96.556228  94.564256  95.998281
     7  Na  10.561589  96.979075  94.824206  92.780876  94.171419
                    6          7
     6  Na   0.000000
     7  Na   3.022738   0.000000
 Stoichiometry    Na7(2)
 Framework group  C1[X(Na7)]
 Deg. of freedom    15
 Full point group                 C1      NOp   1
 Largest Abelian subgroup         C1      NOp   1
 Largest concise Abelian subgroup C1      NOp   1
                         Standard orientation:                         
 ---------------------------------------------------------------------
 Center     Atomic      Atomic             Coordinates (Angstroms)
 Number     Number       Type             X           Y           Z
 ---------------------------------------------------------------------
      1         11           0       54.786148    6.434670   -0.530813
      2         11           0      -43.180829    2.239028    1.950208
      3         11           0      -40.978965    2.676011   -0.446761
      4         11           0      -39.116607   -1.294780   -0.947697
      5         11           0      -40.550704   -3.681915   -0.642051
      6         11           0       55.439906   -2.468336   -0.652234
      7         11           0       53.601051   -3.904678    1.269349
 ---------------------------------------------------------------------
 Rotational constants (GHZ):           0.2248116           0.0014025           0.0013951
 Leave Link  202 at Thu Nov 23 12:30:25 2023, MaxMem=   104857600 cpu:               0.8 elap:               1.1
 (Enter /home/sekinelabo/g16/l301.exe)
 Standard basis: 6-311+G(d) (5D, 7F)
 Ernie: Thresh=  0.10000D-02 Tol=  0.10000D-05 Strict=F.
 There are   217 symmetry adapted cartesian basis functions of A   symmetry.
 There are   210 symmetry adapted basis functions of A   symmetry.
   210 basis functions,   350 primitive gaussians,   217 cartesian basis functions
    39 alpha electrons       38 beta electrons
       nuclear repulsion energy       128.9943376692 Hartrees.
 IExCor=  402 DFT=T Ex+Corr=B3LYP ExCW=0 ScaHFX=  0.200000
 ScaDFX=  0.800000  0.720000  1.000000  0.810000 ScalE2=  1.000000  1.000000
 IRadAn=      5 IRanWt=     -1 IRanGd=            0 ICorTp=0 IEmpDi=  4
 NAtoms=    7 NActive=    7 NUniq=    7 SFac= 1.00D+00 NAtFMM=   60 NAOKFM=F Big=F
 Integral buffers will be    131072 words long.
 Raffenetti 2 integral format.
 Two-electron integral symmetry is turned on.
 Leave Link  301 at Thu Nov 23 12:30:26 2023, MaxMem=   104857600 cpu:               0.7 elap:               0.8
 (Enter /home/sekinelabo/g16/l302.exe)
 NPDir=0 NMtPBC=     1 NCelOv=     1 NCel=       1 NClECP=     1 NCelD=      1
         NCelK=      1 NCelE2=     1 NClLst=     1 CellRange=     0.0.
 One-electron integrals computed using PRISM.
 One-electron integral symmetry used in STVInt
 NBasis=   210 RedAO= T EigKep=  4.48D-05  NBF=   210
 NBsUse=   210 1.00D-06 EigRej= -1.00D+00 NBFU=   210
 Precomputing XC quadrature grid using
 IXCGrd= 4 IRadAn=           5 IRanWt=          -1 IRanGd=           0 AccXCQ= 0.00D+00.
 Generated NRdTot=       0 NPtTot=           0 NUsed=           0 NTot=          32
 NSgBfM=   113   113   113   113   113 MxSgAt=     7 MxSgA2=     4.
 Leave Link  302 at Thu Nov 23 12:31:03 2023, MaxMem=   104857600 cpu:              29.2 elap:              36.5
 (Enter /home/sekinelabo/g16/l303.exe)
 DipDrv:  MaxL=1.
 Leave Link  303 at Thu Nov 23 12:31:06 2023, MaxMem=   104857600 cpu:               2.4 elap:               3.0
 (Enter /home/sekinelabo/g16/l401.exe)
 ExpMin= 7.60D-03 ExpMax= 3.62D+04 ExpMxC= 1.21D+03 IAcc=3 IRadAn=         5 AccDes= 0.00D+00
 Harris functional with IExCor=  402 and IRadAn=       5 diagonalized for initial guess.
 HarFok:  IExCor=  402 AccDes= 0.00D+00 IRadAn=         5 IDoV= 1 UseB2=F ITyADJ=14
 ICtDFT=  3500011 ScaDFX=  1.000000  1.000000  1.000000  1.000000
 FoFCou: FMM=F IPFlag=           0 FMFlag=      100000 FMFlg1=           0
         NFxFlg=           0 DoJE=T BraDBF=F KetDBF=T FulRan=T
         wScrn=  0.000000 ICntrl=       500 IOpCl=  0 I1Cent=   200000004 NGrid=           0
         NMat0=    1 NMatS0=      1 NMatT0=    0 NMatD0=    1 NMtDS0=    0 NMtDT0=    0
 Petite list used in FoFCou.
 Harris En= -1135.85825258674    
 JPrj=0 DoOrth=F DoCkMO=F.
 Initial guess <Sx>= 0.0000 <Sy>= 0.0000 <Sz>= 0.5000 <S**2>= 0.7500 S= 0.5000
 Leave Link  401 at Thu Nov 23 12:31:26 2023, MaxMem=   104857600 cpu:              16.3 elap:              19.4
 (Enter /home/sekinelabo/g16/l502.exe)
 Integral symmetry usage will be decided dynamically.
 UHF open shell SCF:
 Using DIIS extrapolation, IDIIS=  1040.
 NGot=   104857600 LenX=   104758440 LenY=   104710910
 Requested convergence on RMS density matrix=1.00D-08 within 128 cycles.
 Requested convergence on MAX density matrix=1.00D-06.
 Requested convergence on             energy=1.00D-06.
 No special actions if energy rises.
 Fock matrices will be formed incrementally for  20 cycles.

 Cycle   1  Pass 1  IDiag  1:
 FoFJK:  IHMeth= 1 ICntrl=       0 DoSepK=F KAlg= 0 I1Cent=           0 FoldK=F
 IRaf= 450000000 NMat=       1 IRICut=       1 DoRegI=T DoRafI=F ISym2E= 0 IDoP0=0 IntGTp=1.
 FoFCou: FMM=F IPFlag=           0 FMFlag=      100000 FMFlg1=           0
         NFxFlg=           0 DoJE=F BraDBF=F KetDBF=F FulRan=T
         wScrn=  0.000000 ICntrl=         0 IOpCl=  1 I1Cent=           0 NGrid=           0
         NMat0=    1 NMatS0=      1 NMatT0=    0 NMatD0=    1 NMtDS0=    0 NMtDT0=    0
 Symmetry not used in FoFCou.
 E= -1136.06380700696    
 DIIS: error= 1.50D-02 at cycle   1 NSaved=   1.
 NSaved= 1 IEnMin= 1 EnMin= -1136.06380700696     IErMin= 1 ErrMin= 1.50D-02
 ErrMax= 1.50D-02  0.00D+00 EMaxC= 1.00D-01 BMatC= 1.82D-01 BMatP= 1.82D-01
 IDIUse=3 WtCom= 8.50D-01 WtEn= 1.50D-01
 Coeff-Com:  0.100D+01
 Coeff-En:   0.100D+01
 Coeff:      0.100D+01
 Gap=     0.070 Goal=   None    Shift=    0.000
 Gap=     0.046 Goal=   None    Shift=    0.000
 GapD=    0.046 DampG=0.250 DampE=0.500 DampFc=0.2500 IDamp=-1.
 Damping current iteration by 2.50D-01
 RMSDP=1.63D-03 MaxDP=8.43D-02              OVMax= 8.60D-02

 Cycle   2  Pass 1  IDiag  1:
 RMSU=  4.06D-04    CP:  9.99D-01
 E= -1136.07119738484     Delta-E=       -0.007390377880 Rises=F Damp=T
 DIIS: error= 1.08D-02 at cycle   2 NSaved=   2.
 NSaved= 2 IEnMin= 2 EnMin= -1136.07119738484     IErMin= 2 ErrMin= 1.08D-02
 ErrMax= 1.08D-02  0.00D+00 EMaxC= 1.00D-01 BMatC= 7.11D-02 BMatP= 1.82D-01
 IDIUse=3 WtCom= 8.92D-01 WtEn= 1.08D-01
 Coeff-Com: -0.133D+01 0.233D+01
 Coeff-En:   0.000D+00 0.100D+01
 Coeff:     -0.118D+01 0.218D+01
 Gap=     0.055 Goal=   None    Shift=    0.000
 Gap=     0.055 Goal=   None    Shift=    0.000
 RMSDP=1.20D-03 MaxDP=4.82D-02 DE=-7.39D-03 OVMax= 1.94D-02

 Cycle   3  Pass 1  IDiag  1:
 RMSU=  5.28D-04    CP:  9.91D-01  3.00D+00
 E= -1136.08675824007     Delta-E=       -0.015560855224 Rises=F Damp=F
 DIIS: error= 3.83D-04 at cycle   3 NSaved=   3.
 NSaved= 3 IEnMin= 3 EnMin= -1136.08675824007     IErMin= 3 ErrMin= 3.83D-04
 ErrMax= 3.83D-04  0.00D+00 EMaxC= 1.00D-01 BMatC= 1.07D-04 BMatP= 7.11D-02
 IDIUse=3 WtCom= 9.96D-01 WtEn= 3.83D-03
 Coeff-Com:  0.446D-01-0.526D-01 0.101D+01
 Coeff-En:   0.000D+00 0.000D+00 0.100D+01
 Coeff:      0.445D-01-0.524D-01 0.101D+01
 Gap=     0.057 Goal=   None    Shift=    0.000
 Gap=     0.057 Goal=   None    Shift=    0.000
 RMSDP=1.26D-04 MaxDP=5.86D-03 DE=-1.56D-02 OVMax= 1.06D-02

 Cycle   4  Pass 1  IDiag  1:
 RMSU=  1.16D-04    CP:  9.91D-01  3.00D+00  1.09D+00
 E= -1136.08680358162     Delta-E=       -0.000045341552 Rises=F Damp=F
 DIIS: error= 1.73D-04 at cycle   4 NSaved=   4.
 NSaved= 4 IEnMin= 4 EnMin= -1136.08680358162     IErMin= 4 ErrMin= 1.73D-04
 ErrMax= 1.73D-04  0.00D+00 EMaxC= 1.00D-01 BMatC= 1.74D-05 BMatP= 1.07D-04
 IDIUse=3 WtCom= 9.98D-01 WtEn= 1.73D-03
 Coeff-Com:  0.213D-01-0.282D-01 0.312D+00 0.695D+00
 Coeff-En:   0.000D+00 0.000D+00 0.000D+00 0.100D+01
 Coeff:      0.213D-01-0.281D-01 0.312D+00 0.695D+00
 Gap=     0.057 Goal=   None    Shift=    0.000
 Gap=     0.057 Goal=   None    Shift=    0.000
 RMSDP=5.95D-05 MaxDP=5.40D-03 DE=-4.53D-05 OVMax= 6.53D-03

 Cycle   5  Pass 1  IDiag  1:
 RMSU=  3.89D-05    CP:  9.91D-01  3.00D+00  1.12D+00  6.27D-01
 E= -1136.08681453273     Delta-E=       -0.000010951113 Rises=F Damp=F
 DIIS: error= 9.98D-05 at cycle   5 NSaved=   5.
 NSaved= 5 IEnMin= 5 EnMin= -1136.08681453273     IErMin= 5 ErrMin= 9.98D-05
 ErrMax= 9.98D-05  0.00D+00 EMaxC= 1.00D-01 BMatC= 4.42D-06 BMatP= 1.74D-05
 IDIUse=1 WtCom= 1.00D+00 WtEn= 0.00D+00
 Coeff-Com:  0.865D-02-0.118D-01 0.126D+00 0.386D+00 0.491D+00
 Coeff:      0.865D-02-0.118D-01 0.126D+00 0.386D+00 0.491D+00
 Gap=     0.057 Goal=   None    Shift=    0.000
 Gap=     0.057 Goal=   None    Shift=    0.000
 RMSDP=2.71D-05 MaxDP=2.27D-03 DE=-1.10D-05 OVMax= 2.57D-03

 Cycle   6  Pass 1  IDiag  1:
 RMSU=  8.22D-06    CP:  9.91D-01  3.00D+00  1.12D+00  7.14D-01  3.95D-01
 E= -1136.08681886672     Delta-E=       -0.000004333990 Rises=F Damp=F
 DIIS: error= 1.19D-05 at cycle   6 NSaved=   6.
 NSaved= 6 IEnMin= 6 EnMin= -1136.08681886672     IErMin= 6 ErrMin= 1.19D-05
 ErrMax= 1.19D-05  0.00D+00 EMaxC= 1.00D-01 BMatC= 8.10D-08 BMatP= 4.42D-06
 IDIUse=1 WtCom= 1.00D+00 WtEn= 0.00D+00
 Coeff-Com: -0.106D-02 0.134D-02 0.294D-02 0.257D-01 0.115D+00 0.856D+00
 Coeff:     -0.106D-02 0.134D-02 0.294D-02 0.257D-01 0.115D+00 0.856D+00
 Gap=     0.057 Goal=   None    Shift=    0.000
 Gap=     0.057 Goal=   None    Shift=    0.000
 RMSDP=2.74D-06 MaxDP=2.24D-04 DE=-4.33D-06 OVMax= 2.83D-04

 Cycle   7  Pass 1  IDiag  1:
 RMSU=  1.82D-06    CP:  9.91D-01  3.00D+00  1.12D+00  7.17D-01  4.36D-01
                    CP:  1.00D+00
 E= -1136.08681892312     Delta-E=       -0.000000056395 Rises=F Damp=F
 DIIS: error= 2.20D-06 at cycle   7 NSaved=   7.
 NSaved= 7 IEnMin= 7 EnMin= -1136.08681892312     IErMin= 7 ErrMin= 2.20D-06
 ErrMax= 2.20D-06  0.00D+00 EMaxC= 1.00D-01 BMatC= 3.40D-09 BMatP= 8.10D-08
 IDIUse=1 WtCom= 1.00D+00 WtEn= 0.00D+00
 Coeff-Com: -0.547D-03 0.706D-03-0.283D-02-0.487D-02 0.213D-01 0.276D+00
 Coeff-Com:  0.711D+00
 Coeff:     -0.547D-03 0.706D-03-0.283D-02-0.487D-02 0.213D-01 0.276D+00
 Coeff:      0.711D+00
 Gap=     0.057 Goal=   None    Shift=    0.000
 Gap=     0.057 Goal=   None    Shift=    0.000
 RMSDP=6.06D-07 MaxDP=2.79D-05 DE=-5.64D-08 OVMax= 5.19D-05

 Cycle   8  Pass 1  IDiag  1:
 RMSU=  3.06D-07    CP:  9.91D-01  3.00D+00  1.12D+00  7.15D-01  4.37D-01
                    CP:  1.06D+00  9.05D-01
 E= -1136.08681892544     Delta-E=       -0.000000002324 Rises=F Damp=F
 DIIS: error= 6.18D-07 at cycle   8 NSaved=   8.
 NSaved= 8 IEnMin= 8 EnMin= -1136.08681892544     IErMin= 8 ErrMin= 6.18D-07
 ErrMax= 6.18D-07  0.00D+00 EMaxC= 1.00D-01 BMatC= 2.33D-10 BMatP= 3.40D-09
 IDIUse=1 WtCom= 1.00D+00 WtEn= 0.00D+00
 Coeff-Com:  0.244D-04-0.316D-04-0.716D-03-0.418D-02-0.721D-02-0.983D-02
 Coeff-Com:  0.150D+00 0.872D+00
 Coeff:      0.244D-04-0.316D-04-0.716D-03-0.418D-02-0.721D-02-0.983D-02
 Coeff:      0.150D+00 0.872D+00
 Gap=     0.057 Goal=   None    Shift=    0.000
 Gap=     0.057 Goal=   None    Shift=    0.000
 RMSDP=2.22D-07 MaxDP=1.64D-05 DE=-2.32D-09 OVMax= 1.89D-05

 Cycle   9  Pass 1  IDiag  1:
 RMSU=  8.39D-08    CP:  9.91D-01  3.00D+00  1.12D+00  7.15D-01  4.36D-01
                    CP:  1.07D+00  9.63D-01  1.24D+00
 E= -1136.08681892559     Delta-E=       -0.000000000149 Rises=F Damp=F
 DIIS: error= 2.49D-07 at cycle   9 NSaved=   9.
 NSaved= 9 IEnMin= 9 EnMin= -1136.08681892559     IErMin= 9 ErrMin= 2.49D-07
 ErrMax= 2.49D-07  0.00D+00 EMaxC= 1.00D-01 BMatC= 2.24D-11 BMatP= 2.33D-10
 IDIUse=1 WtCom= 1.00D+00 WtEn= 0.00D+00
 Coeff-Com:  0.440D-04-0.570D-04-0.884D-04-0.116D-02-0.394D-02-0.196D-01
 Coeff-Com:  0.994D-02 0.294D+00 0.721D+00
 Coeff:      0.440D-04-0.570D-04-0.884D-04-0.116D-02-0.394D-02-0.196D-01
 Coeff:      0.994D-02 0.294D+00 0.721D+00
 Gap=     0.057 Goal=   None    Shift=    0.000
 Gap=     0.057 Goal=   None    Shift=    0.000
 RMSDP=8.09D-08 MaxDP=7.36D-06 DE=-1.49D-10 OVMax= 1.06D-05

 Cycle  10  Pass 1  IDiag  1:
 RMSU=  3.95D-08    CP:  9.91D-01  3.00D+00  1.12D+00  7.15D-01  4.35D-01
                    CP:  1.08D+00  9.85D-01  1.33D+00  1.37D+00
 E= -1136.08681892564     Delta-E=       -0.000000000051 Rises=F Damp=F
 DIIS: error= 1.77D-07 at cycle  10 NSaved=  10.
 NSaved=10 IEnMin=10 EnMin= -1136.08681892564     IErMin=10 ErrMin= 1.77D-07
 ErrMax= 1.77D-07  0.00D+00 EMaxC= 1.00D-01 BMatC= 2.98D-12 BMatP= 2.24D-11
 IDIUse=1 WtCom= 1.00D+00 WtEn= 0.00D+00
 Coeff-Com: -0.173D-04 0.226D-04 0.849D-04 0.750D-03 0.181D-02 0.612D-02
 Coeff-Com: -0.181D-01-0.167D+00-0.178D+00 0.135D+01
 Coeff:     -0.173D-04 0.226D-04 0.849D-04 0.750D-03 0.181D-02 0.612D-02
 Coeff:     -0.181D-01-0.167D+00-0.178D+00 0.135D+01
 Gap=     0.057 Goal=   None    Shift=    0.000
 Gap=     0.057 Goal=   None    Shift=    0.000
 RMSDP=7.64D-08 MaxDP=8.87D-06 DE=-5.12D-11 OVMax= 1.40D-05

 Cycle  11  Pass 1  IDiag  1:
 RMSU=  2.45D-08    CP:  9.91D-01  3.00D+00  1.12D+00  7.15D-01  4.35D-01
                    CP:  1.08D+00  9.93D-01  1.43D+00  2.03D+00  1.82D+00
 E= -1136.08681892567     Delta-E=       -0.000000000028 Rises=F Damp=F
 DIIS: error= 1.02D-07 at cycle  11 NSaved=  11.
 NSaved=11 IEnMin=11 EnMin= -1136.08681892567     IErMin=11 ErrMin= 1.02D-07
 ErrMax= 1.02D-07  0.00D+00 EMaxC= 1.00D-01 BMatC= 1.12D-12 BMatP= 2.98D-12
 IDIUse=1 WtCom= 1.00D+00 WtEn= 0.00D+00
 Coeff-Com: -0.168D-04 0.217D-04 0.509D-04 0.526D-03 0.161D-02 0.740D-02
 Coeff-Com: -0.680D-02-0.123D+00-0.261D+00 0.327D+00 0.105D+01
 Coeff:     -0.168D-04 0.217D-04 0.509D-04 0.526D-03 0.161D-02 0.740D-02
 Coeff:     -0.680D-02-0.123D+00-0.261D+00 0.327D+00 0.105D+01
 Gap=     0.057 Goal=   None    Shift=    0.000
 Gap=     0.057 Goal=   None    Shift=    0.000
 RMSDP=5.14D-08 MaxDP=6.16D-06 DE=-2.77D-11 OVMax= 9.68D-06

 Cycle  12  Pass 1  IDiag  1:
 RMSU=  6.24D-09    CP:  9.91D-01  3.00D+00  1.12D+00  7.15D-01  4.35D-01
                    CP:  1.08D+00  9.93D-01  1.49D+00  2.40D+00  2.60D+00
                    CP:  1.72D+00
 E= -1136.08681892568     Delta-E=       -0.000000000012 Rises=F Damp=F
 DIIS: error= 4.70D-08 at cycle  12 NSaved=  12.
 NSaved=12 IEnMin=12 EnMin= -1136.08681892568     IErMin=12 ErrMin= 4.70D-08
 ErrMax= 4.70D-08  0.00D+00 EMaxC= 1.00D-01 BMatC= 2.87D-13 BMatP= 1.12D-12
 IDIUse=1 WtCom= 1.00D+00 WtEn= 0.00D+00
 Coeff-Com:  0.289D-05-0.386D-05-0.199D-04-0.154D-03-0.274D-03-0.426D-03
 Coeff-Com:  0.548D-02 0.296D-01-0.841D-02-0.476D+00 0.354D+00 0.110D+01
 Coeff:      0.289D-05-0.386D-05-0.199D-04-0.154D-03-0.274D-03-0.426D-03
 Coeff:      0.548D-02 0.296D-01-0.841D-02-0.476D+00 0.354D+00 0.110D+01
 Gap=     0.057 Goal=   None    Shift=    0.000
 Gap=     0.057 Goal=   None    Shift=    0.000
 RMSDP=3.57D-08 MaxDP=4.19D-06 DE=-1.23D-11 OVMax= 6.68D-06

 Cycle  13  Pass 1  IDiag  1:
 RMSU=  3.45D-09    CP:  9.91D-01  3.00D+00  1.12D+00  7.15D-01  4.35D-01
                    CP:  1.08D+00  9.95D-01  1.52D+00  2.69D+00  3.00D+00
                    CP:  2.39D+00  1.44D+00
 E= -1136.08681892568     Delta-E=       -0.000000000002 Rises=F Damp=F
 DIIS: error= 7.37D-09 at cycle  13 NSaved=  13.
 NSaved=13 IEnMin=13 EnMin= -1136.08681892568     IErMin=13 ErrMin= 7.37D-09
 ErrMax= 7.37D-09  0.00D+00 EMaxC= 1.00D-01 BMatC= 8.46D-15 BMatP= 2.87D-13
 IDIUse=1 WtCom= 1.00D+00 WtEn= 0.00D+00
 Coeff-Com:  0.881D-06-0.115D-05-0.382D-05-0.384D-04-0.878D-04-0.330D-03
 Coeff-Com:  0.723D-03 0.702D-02 0.109D-01-0.440D-01-0.176D-01 0.439D-01
 Coeff-Com:  0.100D+01
 Coeff:      0.881D-06-0.115D-05-0.382D-05-0.384D-04-0.878D-04-0.330D-03
 Coeff:      0.723D-03 0.702D-02 0.109D-01-0.440D-01-0.176D-01 0.439D-01
 Coeff:      0.100D+01
 Gap=     0.057 Goal=   None    Shift=    0.000
 Gap=     0.057 Goal=   None    Shift=    0.000
 RMSDP=3.64D-09 MaxDP=4.16D-07 DE=-2.27D-12 OVMax= 6.49D-07

 SCF Done:  E(UB3LYP) =  -1136.08681893     A.U. after   13 cycles
            NFock= 13  Conv=0.36D-08     -V/T= 2.0028
 <Sx>= 0.0000 <Sy>= 0.0000 <Sz>= 0.5000 <S**2>= 0.7500 S= 0.5000
 <L.S>= 0.000000000000E+00
 KE= 1.132871121579D+03 PE=-2.986932104454D+03 EE= 5.889798262803D+02
 Annihilation of the first spin contaminant:
 S**2 before annihilation     0.7500,   after     0.7500
 Leave Link  502 at Thu Nov 23 12:38:36 2023, MaxMem=   104857600 cpu:             345.3 elap:             430.0
 (Enter /home/sekinelabo/g16/l601.exe)
 Copying SCF densities to generalized density rwf, IOpCl= 1 IROHF=0.

 **********************************************************************

            Population analysis using the SCF Density.

 **********************************************************************

 Orbital symmetries:
 Alpha Orbitals:
       Occupied  (A) (A) (A) (A) (A) (A) (A) (A) (A) (A) (A) (A)
                 (A) (A) (A) (A) (A) (A) (A) (A) (A) (A) (A) (A)
                 (A) (A) (A) (A) (A) (A) (A) (A) (A) (A) (A) (A)
                 (A) (A) (A)
       Virtual   (A) (A) (A) (A) (A) (A) (A) (A) (A) (A) (A) (A)
                 (A) (A) (A) (A) (A) (A) (A) (A) (A) (A) (A) (A)
                 (A) (A) (A) (A) (A) (A) (A) (A) (A) (A) (A) (A)
                 (A) (A) (A) (A) (A) (A) (A) (A) (A) (A) (A) (A)
                 (A) (A) (A) (A) (A) (A) (A) (A) (A) (A) (A) (A)
                 (A) (A) (A) (A) (A) (A) (A) (A) (A) (A) (A) (A)
                 (A) (A) (A) (A) (A) (A) (A) (A) (A) (A) (A) (A)
                 (A) (A) (A) (A) (A) (A) (A) (A) (A) (A) (A) (A)
                 (A) (A) (A) (A) (A) (A) (A) (A) (A) (A) (A) (A)
                 (A) (A) (A) (A) (A) (A) (A) (A) (A) (A) (A) (A)
                 (A) (A) (A) (A) (A) (A) (A) (A) (A) (A) (A) (A)
                 (A) (A) (A) (A) (A) (A) (A) (A) (A) (A) (A) (A)
                 (A) (A) (A) (A) (A) (A) (A) (A) (A) (A) (A) (A)
                 (A) (A) (A) (A) (A) (A) (A) (A) (A) (A) (A) (A)
                 (A) (A) (A)
 Beta  Orbitals:
       Occupied  (A) (A) (A) (A) (A) (A) (A) (A) (A) (A) (A) (A)
                 (A) (A) (A) (A) (A) (A) (A) (A) (A) (A) (A) (A)
                 (A) (A) (A) (A) (A) (A) (A) (A) (A) (A) (A) (A)
                 (A) (A)
       Virtual   (A) (A) (A) (A) (A) (A) (A) (A) (A) (A) (A) (A)
                 (A) (A) (A) (A) (A) (A) (A) (A) (A) (A) (A) (A)
                 (A) (A) (A) (A) (A) (A) (A) (A) (A) (A) (A) (A)
                 (A) (A) (A) (A) (A) (A) (A) (A) (A) (A) (A) (A)
                 (A) (A) (A) (A) (A) (A) (A) (A) (A) (A) (A) (A)
                 (A) (A) (A) (A) (A) (A) (A) (A) (A) (A) (A) (A)
                 (A) (A) (A) (A) (A) (A) (A) (A) (A) (A) (A) (A)
                 (A) (A) (A) (A) (A) (A) (A) (A) (A) (A) (A) (A)
                 (A) (A) (A) (A) (A) (A) (A) (A) (A) (A) (A) (A)
                 (A) (A) (A) (A) (A) (A) (A) (A) (A) (A) (A) (A)
                 (A) (A) (A) (A) (A) (A) (A) (A) (A) (A) (A) (A)
                 (A) (A) (A) (A) (A) (A) (A) (A) (A) (A) (A) (A)
                 (A) (A) (A) (A) (A) (A) (A) (A) (A) (A) (A) (A)
                 (A) (A) (A) (A) (A) (A) (A) (A) (A) (A) (A) (A)
                 (A) (A) (A) (A)
 The electronic state is 2-A.
 Alpha  occ. eigenvalues --  -38.45763 -38.44644 -38.44374 -38.44192 -38.44191
 Alpha  occ. eigenvalues --  -38.44028 -38.43925  -2.21549  -2.20398  -2.20134
 Alpha  occ. eigenvalues --   -2.19986  -2.19978  -2.19860  -2.19751  -1.15161
 Alpha  occ. eigenvalues --   -1.15160  -1.15160  -1.14065  -1.14062  -1.14047
 Alpha  occ. eigenvalues --   -1.13804  -1.13793  -1.13772  -1.13765  -1.13763
 Alpha  occ. eigenvalues --   -1.13649  -1.13649  -1.13620  -1.13619  -1.13531
 Alpha  occ. eigenvalues --   -1.13496  -1.13494  -1.13385  -1.13371  -1.13291
 Alpha  occ. eigenvalues --   -0.13957  -0.13094  -0.12789  -0.12273
 Alpha virt. eigenvalues --   -0.06618  -0.05512  -0.04509  -0.02919  -0.02807
 Alpha virt. eigenvalues --   -0.02494  -0.02382  -0.02102  -0.02052  -0.01849
 Alpha virt. eigenvalues --   -0.01708  -0.01360  -0.00909  -0.00843   0.00035
 Alpha virt. eigenvalues --    0.00270   0.00302   0.00506   0.00658   0.00668
 Alpha virt. eigenvalues --    0.00689   0.00793   0.00960   0.00991   0.01065
 Alpha virt. eigenvalues --    0.01238   0.01242   0.01347   0.01525   0.01582
 Alpha virt. eigenvalues --    0.01593   0.01649   0.01736   0.01847   0.01893
 Alpha virt. eigenvalues --    0.02025   0.02150   0.02255   0.02281   0.02589
 Alpha virt. eigenvalues --    0.02641   0.02660   0.02712   0.02869   0.02926
 Alpha virt. eigenvalues --    0.02930   0.02944   0.03350   0.04279   0.04352
 Alpha virt. eigenvalues --    0.04462   0.05446   0.07003   0.07072   0.07099
 Alpha virt. eigenvalues --    0.07259   0.07270   0.07417   0.07553   0.07592
 Alpha virt. eigenvalues --    0.07738   0.07796   0.07840   0.08218   0.08451
 Alpha virt. eigenvalues --    0.08984   0.09196   0.09492   0.09517   0.09785
 Alpha virt. eigenvalues --    0.10201   0.10295   0.10832   0.10902   0.11201
 Alpha virt. eigenvalues --    0.11658   0.12277   0.14517   0.15303   0.16396
 Alpha virt. eigenvalues --    0.29042   0.29681   0.29845   0.29857   0.30187
 Alpha virt. eigenvalues --    0.30910   0.31687   0.32002   0.32361   0.32819
 Alpha virt. eigenvalues --    0.32997   0.33010   0.33044   0.33235   0.33239
 Alpha virt. eigenvalues --    0.33245   0.33259   0.33390   0.34216   0.35732
 Alpha virt. eigenvalues --    0.37067   0.37653   0.38109   0.38109   0.39294
 Alpha virt. eigenvalues --    0.40161   0.41983   0.41988   0.42031   0.42229
 Alpha virt. eigenvalues --    0.42294   0.42772   0.42949   0.43380   0.43404
 Alpha virt. eigenvalues --    0.43542   0.43629   0.44082   0.44099   0.44400
 Alpha virt. eigenvalues --    0.44446   0.44916   0.45980   0.46097   0.46709
 Alpha virt. eigenvalues --    0.47857   0.47965   0.48929   0.48932   0.49170
 Alpha virt. eigenvalues --    0.49992   0.52009   0.53632   0.63326   0.71373
 Alpha virt. eigenvalues --    0.79765   1.99237   2.02412   2.02595   2.06703
 Alpha virt. eigenvalues --    2.11363   2.12756   2.13120   4.40997   4.41434
 Alpha virt. eigenvalues --    4.42841   4.42889   4.42931   4.43103   4.43476
 Alpha virt. eigenvalues --    4.43562   4.43680   4.43813   4.44074   4.44904
 Alpha virt. eigenvalues --    4.45170   4.45886   4.46055   4.46088   4.47142
 Alpha virt. eigenvalues --    4.49277   4.55149   4.64276   4.73531  96.18359
 Alpha virt. eigenvalues --   96.21552  96.21754  96.26759  96.33414  96.35138
 Alpha virt. eigenvalues --   96.35661
  Beta  occ. eigenvalues --  -38.45577 -38.44644 -38.44374 -38.44192 -38.44191
  Beta  occ. eigenvalues --  -38.44028 -38.43925  -2.21202  -2.20398  -2.20134
  Beta  occ. eigenvalues --   -2.19986  -2.19978  -2.19860  -2.19751  -1.14926
  Beta  occ. eigenvalues --   -1.14926  -1.14926  -1.14065  -1.14062  -1.14047
  Beta  occ. eigenvalues --   -1.13804  -1.13793  -1.13772  -1.13765  -1.13763
  Beta  occ. eigenvalues --   -1.13649  -1.13649  -1.13619  -1.13619  -1.13531
  Beta  occ. eigenvalues --   -1.13496  -1.13494  -1.13385  -1.13371  -1.13291
  Beta  occ. eigenvalues --   -0.13957  -0.13091  -0.12273
  Beta virt. eigenvalues --   -0.06618  -0.06264  -0.05514  -0.04509  -0.02919
  Beta virt. eigenvalues --   -0.02807  -0.02382  -0.02369  -0.01708  -0.01360
  Beta virt. eigenvalues --   -0.01062  -0.00843  -0.00131  -0.00096   0.00035
  Beta virt. eigenvalues --    0.00035   0.00270   0.00506   0.00636   0.00675
  Beta virt. eigenvalues --    0.00689   0.00798   0.00886   0.00960   0.00991
  Beta virt. eigenvalues --    0.01238   0.01248   0.01347   0.01351   0.01593
  Beta virt. eigenvalues --    0.01649   0.01859   0.01893   0.02025   0.02150
  Beta virt. eigenvalues --    0.02255   0.02283   0.02324   0.02330   0.02472
  Beta virt. eigenvalues --    0.02589   0.02660   0.02712   0.02743   0.02864
  Beta virt. eigenvalues --    0.02930   0.02941   0.02944   0.03350   0.04279
  Beta virt. eigenvalues --    0.04352   0.04452   0.05446   0.07003   0.07072
  Beta virt. eigenvalues --    0.07233   0.07372   0.07393   0.07417   0.07553
  Beta virt. eigenvalues --    0.07796   0.08218   0.08608   0.08984   0.08994
  Beta virt. eigenvalues --    0.09062   0.09177   0.09196   0.09492   0.09797
  Beta virt. eigenvalues --    0.09799   0.10201   0.10527   0.10832   0.11201
  Beta virt. eigenvalues --    0.11265   0.11658   0.12277   0.14517   0.15290
  Beta virt. eigenvalues --    0.16396   0.29042   0.29681   0.29846   0.29858
  Beta virt. eigenvalues --    0.30187   0.30910   0.31687   0.32011   0.32361
  Beta virt. eigenvalues --    0.32819   0.32997   0.33011   0.33053   0.34216
  Beta virt. eigenvalues --    0.35336   0.35339   0.35348   0.35360   0.35449
  Beta virt. eigenvalues --    0.35732   0.37067   0.37653   0.38110   0.38115
  Beta virt. eigenvalues --    0.39294   0.40161   0.41993   0.42229   0.42772
  Beta virt. eigenvalues --    0.42949   0.43218   0.43338   0.43404   0.43544
  Beta virt. eigenvalues --    0.43564   0.43629   0.43630   0.44082   0.44107
  Beta virt. eigenvalues --    0.44400   0.44603   0.44916   0.45980   0.46097
  Beta virt. eigenvalues --    0.46709   0.47855   0.47965   0.48930   0.48933
  Beta virt. eigenvalues --    0.49170   0.49992   0.52009   0.53632   0.63326
  Beta virt. eigenvalues --    0.71373   0.79765   2.00095   2.02412   2.02611
  Beta virt. eigenvalues --    2.06703   2.11363   2.12755   2.13120   4.40998
  Beta virt. eigenvalues --    4.41434   4.42931   4.43144   4.43200   4.43413
  Beta virt. eigenvalues --    4.43476   4.43562   4.43693   4.43818   4.44074
  Beta virt. eigenvalues --    4.44904   4.45170   4.45887   4.46058   4.46088
  Beta virt. eigenvalues --    4.47142   4.49277   4.55149   4.64276   4.73531
  Beta virt. eigenvalues --   96.18623  96.21552  96.21760  96.26759  96.33414
  Beta virt. eigenvalues --   96.35138  96.35661
          Condensed to atoms (all electrons):
               1          2          3          4          5          6
     1  Na  11.007265   0.000000   0.000000   0.000000   0.000000  -0.000142
     2  Na   0.000000  10.719653   0.366290  -0.047504  -0.071443   0.000000
     3  Na   0.000000   0.366290  10.733603   0.012792  -0.097964   0.000000
     4  Na   0.000000  -0.047504   0.012792  10.889764   0.350503   0.000000
     5  Na   0.000000  -0.071443  -0.097964   0.350503  10.631632   0.000000
     6  Na  -0.000142   0.000000   0.000000   0.000000   0.000000  10.717747
     7  Na  -0.008182   0.000000   0.000000   0.000000   0.000000   0.342945
               7
     1  Na  -0.008182
     2  Na   0.000000
     3  Na   0.000000
     4  Na   0.000000
     5  Na   0.000000
     6  Na   0.342945
     7  Na  10.605746
          Atomic-Atomic Spin Densities.
               1          2          3          4          5          6
     1  Na   1.006354   0.000000   0.000000   0.000000   0.000000   0.002568
     2  Na   0.000000  -0.000000  -0.000000  -0.000000   0.000000   0.000000
     3  Na   0.000000  -0.000000   0.000000  -0.000000   0.000000   0.000000
     4  Na   0.000000  -0.000000  -0.000000  -0.000000   0.000000   0.000000
     5  Na   0.000000   0.000000   0.000000   0.000000   0.000000   0.000000
     6  Na   0.002568   0.000000   0.000000   0.000000   0.000000  -0.002044
     7  Na  -0.006048   0.000000   0.000000   0.000000   0.000000  -0.003817
               7
     1  Na  -0.006048
     2  Na   0.000000
     3  Na   0.000000
     4  Na   0.000000
     5  Na   0.000000
     6  Na  -0.003817
     7  Na   0.010284
 Mulliken charges and spin densities:
               1          2
     1  Na   0.001058   1.002874
     2  Na   0.033003  -0.000000
     3  Na  -0.014721   0.000000
     4  Na  -0.205555  -0.000000
     5  Na   0.187272   0.000000
     6  Na  -0.060550  -0.003293
     7  Na   0.059491   0.000419
 Sum of Mulliken charges =  -0.00000   1.00000
 Mulliken charges and spin densities with hydrogens summed into heavy atoms:
               1          2
     1  Na   0.001058   1.002874
     2  Na   0.033003  -0.000000
     3  Na  -0.014721   0.000000
     4  Na  -0.205555  -0.000000
     5  Na   0.187272   0.000000
     6  Na  -0.060550  -0.003293
     7  Na   0.059491   0.000419
 Electronic spatial extent (au):  <R**2>=         619366.9637
 Charge=             -0.0000 electrons
 Dipole moment (field-independent basis, Debye):
    X=             -0.6072    Y=              0.0496    Z=              0.4256  Tot=              0.7432
 Quadrupole moment (field-independent basis, Debye-Ang):
   XX=            -21.7219   YY=            -70.1448   ZZ=            -67.7720
   XY=              6.1814   XZ=            -25.1638   YZ=             -5.8532
 Traceless Quadrupole moment (field-independent basis, Debye-Ang):
   XX=             31.4910   YY=            -16.9319   ZZ=            -14.5591
   XY=              6.1814   XZ=            -25.1638   YZ=             -5.8532
 Octapole moment (field-independent basis, Debye-Ang**2):
  XXX=          -3516.4767  YYY=            -74.7765  ZZZ=             20.0149  XYY=           -159.3558
  XXY=            -36.6920  XXZ=            764.9694  XZZ=            -55.7210  YZZ=             -3.0786
  YYZ=             17.4724  XYZ=            -65.5404
 Hexadecapole moment (field-independent basis, Debye-Ang**3):
 XXXX=        -759857.6229 YYYY=          -5970.0490 ZZZZ=           -703.3906 XXXY=          46575.0100
 XXXZ=         -92921.0653 YYYX=            582.9301 YYYZ=           -139.4747 ZZZX=           -467.3746
 ZZZY=            -17.2417 XXYY=        -161345.0486 XXZZ=        -151366.3669 YYZZ=          -1101.6126
 XXYZ=         -11095.4884 YYXZ=           1453.0883 ZZXY=          -1581.4158
 N-N= 1.289943376692D+02 E-N=-2.986932104255D+03  KE= 1.132871121579D+03
                          Isotropic Fermi Contact Couplings
        Atom                 a.u.       MegaHertz       Gauss      10(-4) cm-1
     1  Na(23)             0.79350     938.73592     334.96432     313.12860
     2  Na(23)             0.00000       0.00000       0.00000       0.00000
     3  Na(23)             0.00000       0.00000       0.00000       0.00000
     4  Na(23)             0.00000       0.00000       0.00000       0.00000
     5  Na(23)             0.00000       0.00000       0.00000       0.00000
     6  Na(23)            -0.00032      -0.37395      -0.13343      -0.12474
     7  Na(23)             0.00109       1.28571       0.45877       0.42887
 --------------------------------------------------------
       Center         ----  Spin Dipole Couplings  ----
                      3XX-RR        3YY-RR        3ZZ-RR
 --------------------------------------------------------
     1   Atom       -0.000005      0.000009     -0.000004
     2   Atom        0.000000     -0.000000     -0.000000
     3   Atom        0.000000     -0.000000     -0.000000
     4   Atom        0.000000     -0.000000     -0.000000
     5   Atom        0.000000     -0.000000     -0.000000
     6   Atom       -0.000225      0.000445     -0.000220
     7   Atom       -0.000111      0.000217     -0.000106
 --------------------------------------------------------
                        XY            XZ            YZ
 --------------------------------------------------------
     1   Atom        0.000011      0.000001     -0.000012
     2   Atom        0.000000     -0.000000     -0.000000
     3   Atom        0.000000     -0.000000     -0.000000
     4   Atom        0.000000      0.000000      0.000000
     5   Atom        0.000000      0.000000      0.000000
     6   Atom        0.000020     -0.000039     -0.000063
     7   Atom        0.000030     -0.000013     -0.000050
 --------------------------------------------------------


 ---------------------------------------------------------------------------------
              Anisotropic Spin Dipole Couplings in Principal Axis System
 ---------------------------------------------------------------------------------

       Atom             a.u.   MegaHertz   Gauss  10(-4) cm-1        Axes

              Baa    -0.0000    -0.002    -0.001    -0.001  0.6068 -0.5508 -0.5731
     1 Na(23) Bbb    -0.0000    -0.001    -0.000    -0.000  0.7059  0.0420  0.7071
              Bcc     0.0000     0.003     0.001     0.001  0.3654  0.8336 -0.4142
 
              Baa    -0.0000    -0.000    -0.000    -0.000  0.0148  0.2310  0.9728
     2 Na(23) Bbb    -0.0000    -0.000    -0.000    -0.000 -0.0474  0.9720 -0.2301
              Bcc     0.0000     0.000     0.000     0.000  0.9988  0.0427 -0.0253
 
              Baa    -0.0000    -0.000    -0.000    -0.000 -0.0083  0.2351  0.9719
     3 Na(23) Bbb    -0.0000    -0.000    -0.000    -0.000 -0.0383  0.9712 -0.2352
              Bcc     0.0000     0.000     0.000     0.000  0.9992  0.0392 -0.0009
 
              Baa    -0.0000    -0.000    -0.000    -0.000 -0.0237  0.2366  0.9713
     4 Na(23) Bbb    -0.0000    -0.000    -0.000    -0.000 -0.0786  0.9682 -0.2377
              Bcc     0.0000     0.000     0.000     0.000  0.9966  0.0820  0.0044
 
              Baa    -0.0000    -0.000    -0.000    -0.000 -0.0262  0.2363  0.9713
     5 Na(23) Bbb    -0.0000    -0.000    -0.000    -0.000 -0.1022  0.9659 -0.2378
              Bcc     0.0000     0.000     0.000     0.000  0.9944  0.1055  0.0011
 
              Baa    -0.0003    -0.037    -0.013    -0.012  0.7059  0.0422  0.7071
     6 Na(23) Bbb    -0.0002    -0.027    -0.010    -0.009  0.7074 -0.0920 -0.7008
              Bcc     0.0005     0.064     0.023     0.021  0.0355  0.9949 -0.0948
 
              Baa    -0.0001    -0.017    -0.006    -0.006  0.7059  0.0422  0.7070
     7 Na(23) Bbb    -0.0001    -0.015    -0.005    -0.005  0.7021 -0.1734 -0.6907
              Bcc     0.0002     0.032     0.011     0.011  0.0934  0.9840 -0.1520
 

 ---------------------------------------------------------------------------------

 No NMR shielding tensors so no spin-rotation constants.
 Leave Link  601 at Thu Nov 23 12:38:57 2023, MaxMem=   104857600 cpu:              17.6 elap:              21.4
 (Enter /home/sekinelabo/g16/l701.exe)
 ... and contract with generalized density number  0.
 Compute integral first derivatives.
 Leave Link  701 at Thu Nov 23 12:39:06 2023, MaxMem=   104857600 cpu:               7.3 elap:               8.9
 (Enter /home/sekinelabo/g16/l702.exe)
 L702 exits ... SP integral derivatives will be done elsewhere.
 Leave Link  702 at Thu Nov 23 12:39:07 2023, MaxMem=   104857600 cpu:               0.6 elap:               0.8
 (Enter /home/sekinelabo/g16/l703.exe)
 Integral derivatives from FoFJK, PRISM(SPDF).
 Compute integral first derivatives, UseDBF=F ICtDFT=           0.
 Calling FoFJK, ICntrl=      2127 FMM=F ISym2X=0 I1Cent= 0 IOpClX= 1 NMat=1 NMatS=1 NMatT=0.
 FoFJK:  IHMeth= 1 ICntrl=    2127 DoSepK=F KAlg= 0 I1Cent=           0 FoldK=F
 IRaf=         0 NMat=       1 IRICut=       1 DoRegI=T DoRafI=F ISym2E= 0 IDoP0=0 IntGTp=1.
 FoFCou: FMM=F IPFlag=           0 FMFlag=      100000 FMFlg1=         800
         NFxFlg=           0 DoJE=F BraDBF=F KetDBF=F FulRan=T
         wScrn=  0.000000 ICntrl=      2127 IOpCl=  1 I1Cent=           0 NGrid=           0
         NMat0=    1 NMatS0=      1 NMatT0=    0 NMatD0=    1 NMtDS0=    0 NMtDT0=    0
 Symmetry not used in FoFCou.
 Leave Link  703 at Thu Nov 23 12:39:35 2023, MaxMem=   104857600 cpu:              22.8 elap:              27.6
 (Enter /home/sekinelabo/g16/l716.exe)
 Dipole        =-2.38881408D-01 1.95055904D-02 1.67455379D-01
 ***** Axes restored to original set *****
 -------------------------------------------------------------------
 Center     Atomic                   Forces (Hartrees/Bohr)
 Number     Number              X              Y              Z
 -------------------------------------------------------------------
      1       11          -0.000004601    0.000001064    0.000000287
      2       11          -0.000015342   -0.002715249    0.002612919
      3       11          -0.000339725    0.002724501   -0.002337027
      4       11           0.006130898   -0.001957031    0.003177704
      5       11          -0.005775830    0.001947779   -0.003453597
      6       11           0.000188604   -0.000456952    0.000392391
      7       11          -0.000184002    0.000455889   -0.000392678
 -------------------------------------------------------------------
 Cartesian Forces:  Max     0.006130898 RMS     0.002474551
 Z-matrix is all fixed cartesians, so copy forces.
 Force constants in Cartesian coordinates: 
                1             2             3             4             5 
      1  0.100000D+01
      2  0.000000D+00  0.100000D+01
      3  0.000000D+00  0.000000D+00  0.100000D+01
      4  0.000000D+00  0.000000D+00  0.000000D+00  0.104262D-03
      5  0.000000D+00  0.000000D+00  0.000000D+00  0.116665D-02  0.130543D-01
      6  0.000000D+00  0.000000D+00  0.000000D+00 -0.108622D-02 -0.121544D-01
      7  0.000000D+00  0.000000D+00  0.000000D+00 -0.104262D-03 -0.116665D-02
      8  0.000000D+00  0.000000D+00  0.000000D+00 -0.116665D-02 -0.130543D-01
      9  0.000000D+00  0.000000D+00  0.000000D+00  0.108622D-02  0.121544D-01
     10  0.000000D+00  0.000000D+00  0.000000D+00  0.000000D+00  0.000000D+00
     11  0.000000D+00  0.000000D+00  0.000000D+00  0.000000D+00  0.000000D+00
     12  0.000000D+00  0.000000D+00  0.000000D+00  0.000000D+00  0.000000D+00
     13  0.000000D+00  0.000000D+00  0.000000D+00  0.000000D+00  0.000000D+00
     14  0.000000D+00  0.000000D+00  0.000000D+00  0.000000D+00  0.000000D+00
     15  0.000000D+00  0.000000D+00  0.000000D+00  0.000000D+00  0.000000D+00
     16  0.000000D+00  0.000000D+00  0.000000D+00  0.000000D+00  0.000000D+00
     17  0.000000D+00  0.000000D+00  0.000000D+00  0.000000D+00  0.000000D+00
     18  0.000000D+00  0.000000D+00  0.000000D+00  0.000000D+00  0.000000D+00
     19  0.000000D+00  0.000000D+00  0.000000D+00  0.000000D+00  0.000000D+00
     20  0.000000D+00  0.000000D+00  0.000000D+00  0.000000D+00  0.000000D+00
     21  0.000000D+00  0.000000D+00  0.000000D+00  0.000000D+00  0.000000D+00
                6             7             8             9            10 
      6  0.113165D-01
      7  0.108622D-02  0.104262D-03
      8  0.121544D-01  0.116665D-02  0.130543D-01
      9 -0.113165D-01 -0.108622D-02 -0.121544D-01  0.113165D-01
     10  0.000000D+00  0.000000D+00  0.000000D+00  0.000000D+00  0.320602D-01
     11  0.000000D+00  0.000000D+00  0.000000D+00  0.000000D+00 -0.125484D-01
     12  0.000000D+00  0.000000D+00  0.000000D+00  0.000000D+00  0.216887D-01
     13  0.000000D+00  0.000000D+00  0.000000D+00  0.000000D+00 -0.320602D-01
     14  0.000000D+00  0.000000D+00  0.000000D+00  0.000000D+00  0.125484D-01
     15  0.000000D+00  0.000000D+00  0.000000D+00  0.000000D+00 -0.216887D-01
     16  0.000000D+00  0.000000D+00  0.000000D+00  0.000000D+00  0.000000D+00
     17  0.000000D+00  0.000000D+00  0.000000D+00  0.000000D+00  0.000000D+00
     18  0.000000D+00  0.000000D+00  0.000000D+00  0.000000D+00  0.000000D+00
     19  0.000000D+00  0.000000D+00  0.000000D+00  0.000000D+00  0.000000D+00
     20  0.000000D+00  0.000000D+00  0.000000D+00  0.000000D+00  0.000000D+00
     21  0.000000D+00  0.000000D+00  0.000000D+00  0.000000D+00  0.000000D+00
               11            12            13            14            15 
     11  0.491148D-02
     12 -0.848899D-02  0.146724D-01
     13  0.125484D-01 -0.216887D-01  0.320602D-01
     14 -0.491148D-02  0.848899D-02 -0.125484D-01  0.491148D-02
     15  0.848899D-02 -0.146724D-01  0.216887D-01 -0.848899D-02  0.146724D-01
     16  0.000000D+00  0.000000D+00  0.000000D+00  0.000000D+00  0.000000D+00
     17  0.000000D+00  0.000000D+00  0.000000D+00  0.000000D+00  0.000000D+00
     18  0.000000D+00  0.000000D+00  0.000000D+00  0.000000D+00  0.000000D+00
     19  0.000000D+00  0.000000D+00  0.000000D+00  0.000000D+00  0.000000D+00
     20  0.000000D+00  0.000000D+00  0.000000D+00  0.000000D+00  0.000000D+00
     21  0.000000D+00  0.000000D+00  0.000000D+00  0.000000D+00  0.000000D+00
               16            17            18            19            20 
     16  0.302859D-02
     17 -0.754545D-02  0.187988D-01
     18  0.651243D-02 -0.162251D-01  0.140038D-01
     19 -0.302859D-02  0.754545D-02 -0.651243D-02  0.302859D-02
     20  0.754545D-02 -0.187988D-01  0.162251D-01 -0.754545D-02  0.187988D-01
     21 -0.651243D-02  0.162251D-01 -0.140038D-01  0.651243D-02 -0.162251D-01
               21 
     21  0.140038D-01
 Leave Link  716 at Thu Nov 23 12:39:36 2023, MaxMem=   104857600 cpu:               0.7 elap:               1.1
 (Enter /home/sekinelabo/g16/l103.exe)

 GradGradGradGradGradGradGradGradGradGradGradGradGradGradGradGradGradGrad
 Berny optimization.
 Search for a local minimum.
 Step number   1 out of a maximum of    2
 All quantities printed in internal units (Hartrees-Bohrs-Radians)
 Second derivative matrix not updated -- first step.
 ITU=  0
     Eigenvalues ---   -0.00000  -0.00000  -0.00000  -0.00000   0.00000
     Eigenvalues ---    0.00000   0.00000   0.00000   0.00000   0.04895
     Eigenvalues ---    0.07166   0.10329   0.23934   0.66400   0.85714
 Eigenvalue     1 is  -7.77D-16 should be greater than     0.000000 Eigenvector:
                          X3        Z4        X7        X6        Y4
   1                    0.46821   0.44652   0.33888  -0.33702   0.28322
                          X4        Y5        X5        Z3        Z2
   1                   -0.27704  -0.24486  -0.18661  -0.17091  -0.16533
 Eigenvalue     2 is  -6.66D-16 should be greater than     0.000000 Eigenvector:
                          Z2        Y2        Z3        Y3        Y4
   1                    0.46018   0.43090  -0.36897  -0.36365  -0.32445
                          X3        X4        Y5        Z4        X5
   1                    0.29484  -0.24823   0.23038  -0.10429  -0.09847
 Eigenvalue     3 is  -4.44D-16 should be greater than     0.000000 Eigenvector:
                          Z2        Z7        Z6        Z4        X3
   1                    0.47628  -0.43112  -0.42706   0.34435  -0.29108
                          Y4        X5        Y5        Z3        Y3
   1                    0.21898   0.19771  -0.17799   0.15974  -0.14452
 Eigenvalue     4 is  -2.22D-16 should be greater than     0.000000 Eigenvector:
                          Z4        X7        Z5        X6        Y5
   1                    0.39190  -0.34849   0.34523   0.34276   0.31052
                          Z2        Z6        Z7        X3        X4
   1                   -0.27425  -0.24063  -0.23779   0.21924  -0.20729
 Eigenvalue     5 is   0.00D+00 Eigenvector:
                          X3        Z3        Y4        Z5        X5
   1                    0.41247   0.37597   0.37019  -0.31747  -0.31268
                          X6        Z4        X7        Y2        Z2
   1                    0.27447  -0.26813  -0.24353  -0.21147   0.19072
 Eigenvalue     6 is   0.00D+00 Eigenvector:
                          X2        X5        X4        X3        Y3
   1                    0.82291  -0.28887  -0.28106  -0.27566   0.18879
                          Y5        Y4        Y2        X6        Z4
   1                   -0.16361  -0.10175   0.07351   0.04661   0.03955
 Eigenvalue     7 is   2.22D-16 Eigenvector:
                          Z5        Z4        Z3        Z6        X5
   1                    0.45373  -0.35557   0.34821  -0.31876  -0.30482
                          Z7        X7        X6        Y4        Y3
   1                   -0.27147   0.26093  -0.22617  -0.20017   0.15342
 Eigenvalue     8 is   2.22D-16 Eigenvector:
                          Z5        Y4        Z3        X4        Y3
   1                    0.49900   0.44336  -0.38272   0.35885  -0.28978
                          X5        X7        Y5        X6        Z4
   1                   -0.28490  -0.18148  -0.18042   0.14455  -0.09169
 Eigenvalue     9 is   2.22D-16 Eigenvector:
                          Z7        Z6        Y7        Y6        X7
   1                    0.56222  -0.54016   0.41530  -0.39424  -0.18146
                          X6        Z5        Y5        Z4        X5
   1                    0.17214  -0.02541  -0.02038   0.01656   0.01430
 Quadratic step=1.156D+01 exceeds max=3.000D-01 adjusted using Lamda=-4.213D-03.
 Angle between NR and scaled steps=  26.03 degrees.
 Angle between quadratic step and forces=  59.03 degrees.
 Linear search not attempted -- first point.
 B after Tr=     0.000000   -0.000000    0.000000
         Rot=    1.000000   -0.000000    0.000000    0.000000 Ang=   0.00 deg.
 Variable       Old X    -DE/DX   Delta X   Delta X   Delta X     New X
                                 (Linear)    (Quad)   (Total)
    X1       21.33312  -0.00000   0.00000  -0.00001  -0.00001  21.33311
    Y1        2.43746   0.00000   0.00000   0.00000   0.00000   2.43746
    Z1      187.20515   0.00000   0.00000   0.00000   0.00000 187.20515
    X2       18.67448  -0.00002   0.00000   0.04737   0.04737  18.72185
    Y2        6.23974  -0.00272   0.00000  -0.06035  -0.06035   6.17939
    Z2        1.90346   0.00261   0.00000   0.07584   0.07584   1.97930
    X3       18.26944  -0.00034   0.00000  -0.12968  -0.12968  18.13976
    Y3        1.70747   0.00272   0.00000   0.06236   0.06236   1.76982
    Z3        6.12330  -0.00234   0.00000  -0.01179  -0.01179   6.11151
    X4       10.69249   0.00613   0.00000   0.18348   0.18348  10.87597
    Y4        2.69182  -0.00196   0.00000   0.03085   0.03085   2.72267
    Z4        9.47119   0.00318   0.00000  -0.10073  -0.10073   9.37047
    X5        6.52126  -0.00578   0.00000  -0.10117  -0.10117   6.42009
    Y5        4.32445   0.00195   0.00000  -0.03285  -0.03285   4.29160
    Z5        6.64936  -0.00345   0.00000   0.03677   0.03677   6.68613
    X6        4.95093   0.00019   0.00000   0.00310   0.00310   4.95403
    Y6        6.38193  -0.00046   0.00000  -0.00602  -0.00602   6.37591
    Z6      188.04136   0.00039   0.00000   0.00482   0.00482 188.04618
    X7        3.29024  -0.00018   0.00000  -0.00310  -0.00310   3.28714
    Y7       10.51939   0.00046   0.00000   0.00602   0.00602  10.52541
    Z7      184.47034  -0.00039   0.00000  -0.00491  -0.00491 184.46543
         Item               Value     Threshold  Converged?
 Maximum Force            0.006131     0.000450     NO 
 RMS     Force            0.002475     0.000300     NO 
 Maximum Displacement     0.183484     0.001800     NO 
 RMS     Displacement     0.065484     0.001200     NO 
 Predicted change in Energy=-1.068823D-03
 GradGradGradGradGradGradGradGradGradGradGradGradGradGradGradGradGradGrad

 Leave Link  103 at Thu Nov 23 12:39:41 2023, MaxMem=   104857600 cpu:               3.8 elap:               4.9
 (Enter /home/sekinelabo/g16/l9999.exe)
 1\1\GINC-SEKINELABO-XA7R-R37\Force\UB3LYP\6-311+G(d)\Na7(2)\SEKINELABO
 \23-Nov-2023\0\\#P B3LYP/6-311+g(d) force\\DPGEN\\0,2\Na,11.289,1.2898
 5,99.0647\Na,9.88211,3.30193,1.00727\Na,9.66777,0.903553,3.24031\Na,5.
 65822,1.42445,5.01194\Na,3.4509,2.2884,3.51869\Na,2.61992,3.37717,99.5
 072\Na,1.74112,5.56662,97.6175\\Version=ES64L-G16RevB.01\State=2-A\HF=
 -1136.0868189\S2=0.750015\S2-1=0.\S2A=0.75\RMSD=3.641e-09\RMSF=2.475e-
 03\Dipole=0.065224,0.1539769,-0.2398397\Quadrupole=-14.5398725,-9.4056
 588,23.9455313,-3.0096259,-0.9149671,-18.8531357\PG=C01 [X(Na7)]\\@


 MOM AND DAD WENT TO ALPHA CENTAURI AND ALL
 I GOT WAS THIS DUMB T-SHIRT.
 Job cpu time:       0 days  0 hours  7 minutes 32.0 seconds.
 Elapsed time:       0 days  0 hours  9 minutes 20.6 seconds.
 File lengths (MBytes):  RWF=     46 Int=      0 D2E=      0 Chk=      4 Scr=      1
 Normal termination of Gaussian 16 at Thu Nov 23 12:39:42 2023.
