9.411440000000000694e+00 3.640199999999999686e-02 1.963840000000000030e+00 1.126810000000000045e+01 2.244250000000000078e+00 8.663910000000000222e-01 9.365109999999999602e+00 4.350130000000000052e+00 3.977609999999999757e-01 7.082600000000000229e+00 4.562030000000000030e+00 2.340219999999999967e+00 4.829629999999999868e+00 2.646970000000000045e+00 1.640330000000000066e+00 2.456960000000000033e+00 1.844260000000000010e+00 6.420900000000000218e-02 9.989509800000000439e+01 2.467919999999999892e+00 1.694930000000000048e+00
9.132740000000000080e+00 1.328320000000000056e-01 2.034689999999999888e+00 1.144660000000000011e+01 2.172149999999999803e+00 9.139699999999999491e-01 9.462799999999999656e+00 4.405300000000000438e+00 2.435539999999999927e-01 7.089330000000000354e+00 4.751240000000000130e+00 2.281989999999999963e+00 5.027239999999999931e+00 2.426979999999999915e+00 1.722050000000000081e+00 2.448679999999999968e+00 1.732189999999999896e+00 1.135120000000000018e-01 9.970159900000000164e+01 2.531270000000000131e+00 1.657920000000000060e+00
8.978680000000000661e+00 2.094219999999999970e-01 2.060880000000000045e+00 1.158120000000000083e+01 2.067079999999999806e+00 9.549699999999999855e-01 9.483670000000000044e+00 4.479269999999999641e+00 1.336690000000000100e-01 7.087629999999999875e+00 4.888600000000000279e+00 2.282939999999999969e+00 5.186340000000000394e+00 2.279030000000000111e+00 1.794559999999999933e+00 2.375560000000000116e+00 1.669759999999999911e+00 1.086759999999999948e-01 9.961589999999999634e+01 2.558800000000000185e+00 1.631990000000000052e+00
1.464460000000000051e+01 9.823850000000000193e+01 1.733200000000000074e+00 1.257409999999999961e+01 5.894200000000000550e-01 1.607320000000000082e+00 9.017799999999999372e+00 3.139009999999999856e+00 1.686530000000000085e+00 6.591920000000000002e+00 4.982289999999999885e+00 1.125950000000000006e+00 2.821709999999999940e+00 6.182629999999999626e+00 5.743449999999999944e-01 9.979500000000000171e+01 3.701319999999999943e+00 9.016299999999999315e-02 9.886390000000000100e+01 1.318829999999999947e+00 2.150180000000000202e+00
1.491319999999999979e+01 9.848699999999999477e+01 1.672350000000000003e+00 1.259900000000000020e+01 3.071809999999999818e-01 1.606470000000000065e+00 9.014900000000000801e+00 3.179230000000000000e+00 1.759349999999999969e+00 6.350290000000000212e+00 4.570820000000000327e+00 1.355120000000000102e+00 2.506499999999999950e+00 6.024140000000000050e+00 3.451380000000000003e-01 9.985429999999999495e+01 3.741629999999999789e+00 9.448099999999999554e-02 9.907070000000000221e+01 1.842000000000000082e+00 2.134780000000000122e+00
1.521909999999999918e+01 9.904600000000000648e+01 1.553560000000000052e+00 1.244979999999999976e+01 3.533900000000000236e-02 1.644360000000000044e+00 9.034819999999999851e+00 3.024809999999999999e+00 1.826629999999999976e+00 6.114849999999999675e+00 3.868090000000000028e+00 1.707049999999999956e+00 2.493559999999999999e+00 5.741760000000000197e+00 4.350400000000000100e-02 9.978839999999999577e+01 4.118129999999999846e+00 9.960540000000000305e+01 9.920850000000000080e+01 2.317820000000000213e+00 2.587219999999999853e+00
1.530330000000000013e+01 9.942140000000000555e+01 1.477100000000000080e+00 1.228159999999999918e+01 6.137399999999999800e-02 1.688420000000000032e+00 8.908979999999999677e+00 2.759189999999999809e+00 1.850980000000000070e+00 6.041549999999999976e+00 3.571549999999999780e+00 1.793560000000000043e+00 3.090489999999999959e+00 5.578859999999999708e+00 9.996700400000000286e+01 9.943919999999999959e+01 4.052590000000000359e+00 9.961190000000000566e+01 9.924379999999999313e+01 2.707009999999999916e+00 2.578720000000000123e+00
1.528320000000000078e+01 9.951980000000000359e+01 1.460730000000000084e+00 1.230739999999999945e+01 5.228499999999999814e-02 1.695840000000000014e+00 8.871320000000000761e+00 2.692180000000000017e+00 1.859140000000000015e+00 6.031240000000000379e+00 3.505220000000000002e+00 1.823439999999999950e+00 3.172239999999999949e+00 5.518119999999999692e+00 9.992350000000000421e+01 9.940399999999999636e+01 4.041009999999999991e+00 9.968340000000000600e+01 9.923959999999999582e+01 2.823310000000000208e+00 2.521599999999999842e+00
1.280640000000000001e+01 9.934060000000000112e-01 1.326340000000000074e+00 1.107160000000000011e+01 2.985399999999999832e+00 9.965600000000000591e+01 8.769700000000000273e+00 2.069589999999999819e+00 1.738979999999999970e+00 6.049549999999999983e+00 9.996410000000000196e+01 3.623899999999999899e+00 3.558980000000000032e+00 1.811770000000000103e+00 3.203230000000000022e+00 3.388840000000000185e-01 4.396259999999999835e+00 9.036629999999999940e-01 1.713940000000000019e+00 5.931420000000000137e+00 9.851560000000000628e+01
1.271540000000000070e+01 1.005430000000000046e+00 1.255039999999999933e+00 1.100799999999999912e+01 3.004820000000000046e+00 9.969819999999999993e+01 8.808899999999999508e+00 2.031350000000000211e+00 1.782380000000000075e+00 6.035800000000000054e+00 2.199999999999999872e-02 3.662080000000000002e+00 3.624779999999999891e+00 1.761949999999999905e+00 3.226059999999999928e+00 3.535389999999999922e-01 4.396390000000000242e+00 8.980979999999999519e-01 1.762550000000000061e+00 5.930489999999999817e+00 9.844580000000000553e+01
1.265329999999999977e+01 1.001440000000000108e+00 1.191219999999999946e+00 1.096369999999999933e+01 3.049339999999999939e+00 9.970250000000000057e+01 8.824370000000000047e+00 1.993679999999999897e+00 1.844600000000000017e+00 6.013650000000000162e+00 6.400000000000000133e-02 3.711850000000000094e+00 3.631629999999999914e+00 1.749740000000000073e+00 3.218949999999999978e+00 4.260829999999999895e-01 4.373249999999999638e+00 9.045879999999999477e-01 1.796240000000000059e+00 5.920049999999999812e+00 9.839390000000000214e+01
1.261529999999999951e+01 9.807139999999999747e-01 1.134379999999999944e+00 1.092259999999999920e+01 3.115219999999999878e+00 9.968170000000000641e+01 8.839079999999999160e+00 1.964839999999999920e+00 1.910409999999999942e+00 5.987070000000000114e+00 8.300000000000000433e-02 3.780019999999999936e+00 3.574059999999999793e+00 1.780000000000000027e+00 3.181020000000000181e+00 5.553460000000000063e-01 4.328540000000000276e+00 9.204379999999999784e-01 1.815549999999999997e+00 5.899619999999999642e+00 9.835970000000000368e+01
1.259619999999999962e+01 9.407299999999999551e-01 1.086330000000000018e+00 1.086020000000000074e+01 3.196190000000000087e+00 9.965550000000000352e+01 8.886609999999999232e+00 1.954809999999999937e+00 1.956439999999999957e+00 5.942090000000000316e+00 8.500000000000000611e-02 3.865969999999999906e+00 3.475859999999999950e+00 1.831339999999999968e+00 3.126939999999999831e+00 7.266970000000000374e-01 4.274230000000000196e+00 9.343890000000000251e-01 1.821350000000000025e+00 5.869349999999999845e+00 9.834210000000000207e+01
1.234019999999999939e+01 8.000859999999999639e-01 6.188369999999999704e-01 1.034079999999999977e+01 3.524210000000000065e+00 9.977249999999999375e+01 9.351670000000000371e+00 1.783519999999999994e+00 2.263609999999999900e+00 5.844350000000000378e+00 4.192509999999999848e-01 4.256809999999999761e+00 3.218469999999999942e+00 1.303490000000000038e+00 3.604049999999999976e+00 1.328209999999999891e+00 4.427170000000000272e+00 6.365730000000000555e-01 1.885270000000000001e+00 5.894230000000000302e+00 9.781529999999999347e+01
1.154059999999999953e+01 1.269320000000000004e+00 9.916979999999999507e+01 9.801600000000000534e+00 3.098069999999999879e+00 9.353430000000000355e-01 9.571289999999999409e+00 1.193820000000000103e+00 3.177319999999999922e+00 5.850480000000000125e+00 1.456569999999999920e+00 4.568520000000000358e+00 3.053659999999999819e+00 1.985530000000000017e+00 3.587810000000000166e+00 2.703139999999999876e+00 3.666700000000000070e+00 9.969050000000000011e+01 1.788249999999999895e+00 5.481959999999999944e+00 9.783839999999999293e+01
1.146289999999999942e+01 1.295409999999999950e+00 9.916240000000000521e+01 9.822649999999999437e+00 3.076410000000000089e+00 9.904410000000000158e-01 9.582979999999999166e+00 1.171300000000000008e+00 3.150300000000000100e+00 5.772409999999999819e+00 1.469519999999999937e+00 4.628449999999999953e+00 3.193130000000000024e+00 2.061549999999999994e+00 3.548080000000000123e+00 2.686479999999999979e+00 3.600649999999999906e+00 9.967440000000000566e+01 1.788440000000000030e+00 5.477120000000000211e+00 9.781350000000000477e+01
1.128899999999999970e+01 1.289849999999999941e+00 9.906470000000000198e+01 9.882110000000000838e+00 3.301930000000000032e+00 1.007270000000000110e+00 9.667770000000000863e+00 9.035530000000000506e-01 3.240310000000000024e+00 5.658220000000000027e+00 1.424449999999999994e+00 5.011940000000000062e+00 3.450899999999999856e+00 2.288400000000000212e+00 3.518689999999999873e+00 2.619920000000000027e+00 3.377170000000000005e+00 9.950719999999999743e+01 1.741120000000000001e+00 5.566620000000000346e+00 9.761750000000000682e+01
1.039719999999999978e+01 1.518739999999999979e+00 9.874110000000000298e+01 1.060820000000000007e+01 3.468409999999999993e+00 1.135899999999999910e+00 8.759159999999999613e+00 5.523179999999999756e-01 4.217329999999999579e+00 6.045490000000000030e+00 1.387459999999999916e+00 5.427740000000000009e+00 4.583210000000000228e+00 2.572700000000000209e+00 2.855140000000000011e+00 2.187469999999999803e+00 3.638700000000000045e+00 9.954470000000000596e+01 1.728320000000000078e+00 5.013639999999999652e+00 9.704579999999999984e+01
1.035960000000000036e+01 1.577990000000000004e+00 9.871999999999999886e+01 1.064339999999999975e+01 3.387529999999999930e+00 1.138449999999999962e+00 8.806580000000000297e+00 5.583960000000000035e-01 4.250639999999999752e+00 5.940780000000000172e+00 1.424600000000000088e+00 5.451360000000000205e+00 4.713619999999999699e+00 2.540729999999999933e+00 2.859319999999999862e+00 2.120550000000000157e+00 3.697849999999999859e+00 9.956699999999999307e+01 1.724480000000000013e+00 4.964870000000000339e+00 9.698099999999999454e+01
1.032840000000000025e+01 1.641140000000000043e+00 9.869780000000000086e+01 1.066319999999999979e+01 3.282230000000000203e+00 1.157219999999999915e+00 8.871969999999999246e+00 5.821709999999999940e-01 4.275350000000000428e+00 5.853699999999999903e+00 1.452090000000000103e+00 5.476320000000000299e+00 4.818970000000000198e+00 2.517430000000000057e+00 2.864050000000000207e+00 2.057729999999999837e+00 3.746509999999999785e+00 9.959919999999999618e+01 1.714990000000000014e+00 4.930390000000000050e+00 9.689770000000000039e+01
