-3.091440942936937063e+04
-3.091453463630456099e+04
-3.091458093212443418e+04
-3.091401362723917919e+04
-3.091387066705137477e+04
-3.091324091693273658e+04
-3.091318267150470638e+04
-3.091317708146962832e+04
-3.091231963000836549e+04
-3.091373714377232318e+04
-3.091376000895595280e+04
-3.091380041732030077e+04
-3.091385105362839749e+04
-3.091382951717675314e+04
-3.091452767481561750e+04
-3.091449950395589258e+04
-3.091449723888009976e+04
-3.091402695156657137e+04
-3.091407070257760279e+04
-3.091412280748421836e+04
