9.133073404470252663e-03 -5.845511506713053224e-02 -4.071907835180347407e-02 3.815318917562927070e-01 -3.766097714574588307e-01 8.900820494506679614e-02 -2.829865388005267657e-01 3.039591832869487087e-01 -1.442819395415719796e-01 5.974951134964461008e-02 3.105803915393353654e-01 1.810574081165485516e-01 -8.477133511742240141e-03 -9.647036968896130493e-02 4.197943322564822062e-03 -1.589508041981386455e-01 -8.300431861273341316e-02 -8.926253849080470482e-02 -0.000000000000000000e+00 0.000000000000000000e+00 -0.000000000000000000e+00
1.004056490908570576e-01 4.812241625050507621e-02 -1.004440613752618783e-01 1.407654414572034329e-01 -3.317710655918569840e-01 1.192999678760883614e-01 -2.508915068072453680e-01 1.519434162190047566e-01 -2.485295369818552730e-02 5.971819531055153063e-02 2.606184022469322237e-01 5.248475592279170515e-02 -3.449500272653645977e-02 -8.710898230489616534e-02 -4.823569906515542266e-02 -1.550277632483022458e-02 -4.180418681968890021e-02 1.747990339722748244e-03 -0.000000000000000000e+00 0.000000000000000000e+00 -0.000000000000000000e+00
1.421074031521331327e-01 8.354666715840620983e-02 -1.202679882963302027e-01 -2.455280309032621330e-02 -2.325598997064074747e-01 9.671920107347925510e-02 -1.927502720399903169e-01 2.855415984892903727e-02 7.103290134977238712e-02 5.632732133702764155e-02 1.955259838202949296e-01 -1.818068333279485374e-02 -1.037720461602622130e-01 -6.259227750593834849e-02 -1.124523482606034214e-01 1.226404482234854515e-01 -1.247458219321686580e-02 8.314886604440935303e-02 -0.000000000000000000e+00 0.000000000000000000e+00 -0.000000000000000000e+00
0.000000000000000000e+00 -0.000000000000000000e+00 0.000000000000000000e+00 -2.593748623891521943e-01 1.877632056699337915e-01 6.254568911280479308e-03 3.988968668327106393e-01 -2.964603546089435437e-01 2.689785505551657921e-02 -4.339554039967201682e-01 2.024534104845031046e-01 -7.725671986470201980e-02 2.944333995531617232e-01 -9.375621012342587324e-02 4.410429589790496041e-02 -5.793554649734973527e-02 -1.482801081319913006e-01 1.282030817948044965e-01 5.793554649734973527e-02 1.482801081319913006e-01 -1.282030817948044965e-01
0.000000000000000000e+00 -0.000000000000000000e+00 0.000000000000000000e+00 -2.269040379267538432e-01 1.826708783277532500e-01 1.028857868273077431e-02 4.219200691038860751e-01 -2.843653186957694756e-01 1.939331852802157058e-02 -4.685897605261174492e-01 2.042459837567278391e-01 -1.022050614980561378e-01 2.735737807710527658e-01 -1.025515433887116135e-01 7.252316428730379294e-02 5.320224803028889005e-02 1.289698876650114401e-01 -1.385225651400885383e-01 -5.320224803028889005e-02 -1.289698876650114401e-01 1.385225651400885383e-01
0.000000000000000000e+00 -0.000000000000000000e+00 0.000000000000000000e+00 -5.459851142847357147e-02 5.012890532343131089e-02 3.049585711683510791e-03 1.237564099318566868e-01 -7.443884198906683403e-02 1.835716386837360145e-03 -1.418641253509026201e-01 6.322199214425341940e-02 -4.008077622821983738e-02 7.270617542545203260e-02 -3.891210690068537537e-02 3.519547412969896427e-02 -0.000000000000000000e+00 0.000000000000000000e+00 -0.000000000000000000e+00 -0.000000000000000000e+00 -0.000000000000000000e+00 -0.000000000000000000e+00
-0.000000000000000000e+00 -0.000000000000000000e+00 0.000000000000000000e+00 -9.384059373615452615e-02 7.725178334622428977e-02 4.812951249581681051e-03 2.253069199330066386e-01 -1.171161755145037481e-01 -2.528628746080852693e-03 -1.314662747747846749e-01 3.986439216827945831e-02 -2.284322503500827925e-03 0.000000000000000000e+00 0.000000000000000000e+00 -0.000000000000000000e+00 -0.000000000000000000e+00 -0.000000000000000000e+00 -0.000000000000000000e+00 -0.000000000000000000e+00 -0.000000000000000000e+00 -0.000000000000000000e+00
-0.000000000000000000e+00 -0.000000000000000000e+00 0.000000000000000000e+00 -9.315102381129700126e-02 7.357417992445240695e-02 4.676579926634464625e-03 2.548599534426633229e-01 -1.223475995492077778e-01 -2.978160459958893985e-03 -1.617089296313663216e-01 4.877347104682283607e-02 -1.698419466675569990e-03 0.000000000000000000e+00 0.000000000000000000e+00 -0.000000000000000000e+00 -0.000000000000000000e+00 -0.000000000000000000e+00 -0.000000000000000000e+00 -0.000000000000000000e+00 -0.000000000000000000e+00 -0.000000000000000000e+00
-3.967346717394660827e-01 1.055547463955314735e-01 4.146922347214811178e-02 -2.518328905965344297e-02 7.927894409027601286e-03 -3.069177519391990978e-03 3.369210370716784753e-01 -1.071727931707415482e-01 -2.651599478243738678e-02 -0.000000000000000000e+00 -0.000000000000000000e+00 -0.000000000000000000e+00 -1.965476374569145590e-01 2.054721943777683135e-01 -1.961741589808339847e-01 2.563612721247021664e-01 -2.038541476025582388e-01 1.812208788690558015e-01 2.518328905965344297e-02 -7.927894409027601286e-03 3.069177519391990978e-03
-3.414680333882726404e-01 8.862778448987693181e-02 4.716817694434689151e-02 1.413592634924200483e-04 -4.345164701749542935e-05 2.036313872062507958e-05 2.397691193003859411e-01 -1.400158619796010306e-01 9.161304119514756053e-03 1.885086199600706225e-01 -3.859395856920934398e-02 -2.225300254451501036e-02 -1.559188048335320431e-01 1.481493932364664479e-01 -8.744296863315491330e-02 6.910909896134807828e-02 -5.816730575546553983e-02 5.336649011380827090e-02 -1.413592634924200483e-04 4.345164701749542935e-05 -2.036313872062507958e-05
-3.421523068401800538e-01 8.768357248687663752e-02 6.002616207266724818e-02 1.488154632764873263e-04 -4.586848418888275606e-05 2.231717728472546396e-05 2.432397489005656277e-01 -1.332340626104857872e-01 -7.914987470091044280e-03 2.294339008024541549e-01 -7.514764376716051575e-02 -6.002806468916386910e-03 -2.006293154849153881e-01 1.807278440860927704e-01 -1.009717032096364570e-01 7.010797262207570102e-02 -6.002971019532311187e-02 5.486328365390916173e-02 -1.488154632764873263e-04 4.586848418888275606e-05 -2.231717728472546396e-05
-3.325638396061394997e-01 8.625995254879455232e-02 7.030990708105525067e-02 1.478384439944371257e-04 -4.509715317673786687e-05 2.221433314977281501e-05 2.287491131298719227e-01 -1.338420771363258710e-01 -1.599812510082967293e-02 1.946998368842202398e-01 -4.476383533535632092e-02 -1.195254536419720556e-02 -1.744970835920538477e-01 1.664457247990155653e-01 -1.102524607918987237e-01 8.361197318410114321e-02 -7.409976487612794649e-02 6.789322417587034808e-02 -1.478384439944371257e-04 4.509715317673786687e-05 -2.221433314977281501e-05
-3.226136181274029124e-01 8.859677698318871308e-02 7.771267933701460351e-02 1.495353722211558724e-04 -4.473719870440358705e-05 2.211148901482016266e-05 2.098509891116473458e-01 -1.424883892500652116e-01 -1.730810226978907532e-02 1.361481511743691808e-01 1.018372908714654419e-02 -3.369806352478835199e-02 -1.236022979956301199e-01 1.375833924997009183e-01 -1.134347154376711547e-01 1.002168272590839848e-01 -9.387545789790348316e-02 8.672820189523397505e-02 -1.495353722211558724e-04 4.473719870440358705e-05 -2.211148901482016266e-05
-2.596761442824960242e-01 8.523778469150014581e-02 1.477461413833171255e-01 3.370202302398403178e-04 -9.585073377587159237e-05 7.841865290139708429e-05 1.919385232828090260e-01 -1.044181644381022428e-01 -1.169641718830437271e-01 3.550368257553181972e-01 -9.034492158911389126e-02 4.874488037730600326e-02 -3.201810458033678697e-01 1.686249920186622675e-01 -1.357039673555086867e-01 3.288178962566915692e-02 -5.909969068294627231e-02 5.617711747792929200e-02 -3.370202302398403178e-04 9.585073377587159237e-05 -7.841865290139708429e-05
-2.016259265746740920e-04 5.275904123071042929e-05 1.475813336570555050e-05 9.702984178310374713e-03 9.041079325755106699e-02 -9.638881428994384992e-02 -2.671926621517129938e-02 -9.931179887150065611e-02 1.189536916737027883e-01 1.026109358766467833e-01 5.281663394628391406e-03 -1.394067675903439690e-02 -8.559470526185332384e-02 3.619393641388678976e-03 -8.624149202657055424e-03 1.448971531568587490e-01 -2.871293576667569014e-01 2.928495998748908979e-01 -1.446954758082165948e-01 2.870765986255262581e-01 -2.928643580082566089e-01
-2.126816710820841547e-04 5.317041777052103867e-05 1.604368505261369803e-05 1.879569125981171013e-02 1.441927736765680479e-01 -1.539379239502090269e-01 -3.578723928221652639e-02 -1.514231277402792730e-01 1.741153261631095961e-01 2.793015306010382393e-01 -3.984958261284627518e-02 6.822150265463922114e-02 -2.623100340007009090e-01 4.707988525449004202e-02 -8.839890486753980425e-02 1.165769637149469962e-01 -2.430977211501960111e-01 2.410102423209945499e-01 -1.163642820438649111e-01 2.430445507324254795e-01 -2.410262860060471690e-01
-2.365929324585756995e-04 5.471307979481082384e-05 1.475813336570555050e-05 -7.889173592217928101e-04 -1.396237172930265835e-01 1.343616971281741401e-01 -1.746936187339483484e-02 1.400994742613175248e-01 -1.201747600879956301e-01 3.152634506464718767e-01 -1.006345801352616642e-01 1.634041095077908845e-01 -2.970051199917877471e-01 1.001588231669706952e-01 -1.775910979700368875e-01 9.698407614304981050e-03 -2.349741657744209775e-02 2.017755647910302041e-02 -9.461763259778929042e-03 2.344275491971476583e-02 -2.019231461246872444e-02
-2.957797321238269240e-04 6.947121316051636417e-05 4.206325119563463286e-05 -5.333522549678266361e-02 -2.030439415074012099e-01 2.041551209634971664e-01 3.188273084549860803e-01 1.678349947960234567e-01 -3.473085518122337456e-01 -2.509919855270940636e-01 8.756915838674181329e-02 6.880524596463047371e-02 -1.450014885317682002e-02 -5.236021167536404619e-02 7.434818488410606385e-02 3.315669199839759579e-02 -9.834881781387150301e-02 1.785115529778631416e-01 -3.286091226627376599e-02 9.827934660071098449e-02 -1.785536162290587703e-01
-2.831299035246507331e-04 6.762001873136862197e-05 3.954356988929466057e-05 -6.100410695193201477e-02 -2.073746566081899056e-01 2.158545669115758681e-01 2.404979756847954175e-01 2.006709159375037466e-01 -3.246374878591362090e-01 -1.395391794140954933e-01 2.897983172349806458e-02 1.032179219611373266e-01 -3.995463789670040955e-02 -2.227609105281187774e-02 5.564998986422947484e-03 2.499117621556189162e-02 -7.890489997145322398e-02 1.609031972560797941e-01 -2.470799488996976503e-02 7.883727995272185596e-02 -1.609426894039016065e-01
-2.762907685502993555e-04 6.720864219155802614e-05 3.620113550333346953e-05 -6.953924455578754105e-02 -2.127310876889288993e-01 2.316126538014260661e-01 1.846658488575647628e-01 2.267425212128107159e-01 -3.194611882807668057e-01 -6.752715047750638966e-02 -1.387609064228412931e-02 1.393857359647461269e-01 -4.759940240220336682e-02 -1.353428815976899166e-04 -5.153725290747292187e-02 1.158791148372257697e-02 -3.881975286749789894e-02 8.838095856599056943e-02 -1.131162071517227870e-02 3.875254422530634291e-02 -8.841715970149389980e-02
